<?xml version="1.0" encoding="UTF-8"?>

<!-- generated on 2022-08-26 16:42:58 by Eclipse SUMO GUI Version 1.14.1
<configuration xmlns:xsi="http://www.w3.org/2001/XMLSchema-instance" xsi:noNamespaceSchemaLocation="http://sumo.dlr.de/xsd/sumoConfiguration.xsd">

    <input>
        <net-file value="osm-test.net.xml"/>
        <route-files value="odtest.rou.xml"/>
        <additional-files value="vehicle.add.xml"/>
    </input>

    <output>
        <tripinfo-output value="tripinfos.xml"/>
    </output>

    <processing>
        <ignore-route-errors value="true"/>
    </processing>

    <routing>
        <device.rerouting.adaptation-steps value="18"/>
        <device.rerouting.adaptation-interval value="10"/>
    </routing>

    <report>
        <verbose value="true"/>
        <duration-log.statistics value="true"/>
        <no-step-log value="true"/>
    </report>

    <taxi_device>
        <device.taxi.dispatch-algorithm value="greedy"/>
    </taxi_device>

    <traci_server>
        <remote-port value="51038"/>
    </traci_server>

    <gui_only>
        <gui-settings-file value="osm.view.xml"/>
    </gui_only>

</configuration>
-->

<tripinfos xmlns:xsi="http://www.w3.org/2001/XMLSchema-instance" xsi:noNamespaceSchemaLocation="http://sumo.dlr.de/xsd/tripinfo_file.xsd">
    <tripinfo id="7004" depart="13.00" departLane="55717665_0" departPos="5.10" departSpeed="37.01" departDelay="0.57" arrival="151.00" arrivalLane="E71_2" arrivalPos="119.75" arrivalSpeed="6.84" duration="138.00" routeLength="2546.52" waitingTime="0.00" waitingCount="0" stopTime="0.00" timeLoss="13.63" rerouteNo="1" devices="tripinfo_7004 routing_7004" vType="DEFAULT_VEHTYPE" speedFactor="0.94" vaporized=""/>
    <tripinfo id="33" depart="159.00" departLane="504569020#1_0" departPos="5.10" departSpeed="8.48" departDelay="0.31" arrival="284.00" arrivalLane="-504569022_2" arrivalPos="318.77" arrivalSpeed="7.54" duration="125.00" routeLength="946.11" waitingTime="0.00" waitingCount="0" stopTime="0.00" timeLoss="11.87" rerouteNo="1" devices="tripinfo_33 routing_33" vType="DEFAULT_VEHTYPE" speedFactor="1.02" vaporized=""/>
    <tripinfo id="449" depart="92.00" departLane="-E43_2" departPos="5.10" departSpeed="7.14" departDelay="0.61" arrival="327.00" arrivalLane="504569020#1_0" arrivalPos="98.87" arrivalSpeed="6.22" duration="235.00" routeLength="1734.01" waitingTime="20.00" waitingCount="1" stopTime="0.00" timeLoss="48.87" rerouteNo="1" devices="tripinfo_449 routing_449" vType="DEFAULT_VEHTYPE" speedFactor="0.86" vaporized=""/>
    <tripinfo id="4225" depart="39.00" departLane="E51_2" departPos="5.10" departSpeed="9.02" departDelay="0.44" arrival="365.00" arrivalLane="289441726_0" arrivalPos="198.23" arrivalSpeed="29.28" duration="326.00" routeLength="5659.35" waitingTime="72.00" waitingCount="3" stopTime="0.00" timeLoss="116.82" rerouteNo="1" devices="tripinfo_4225 routing_4225" vType="DEFAULT_VEHTYPE" speedFactor="1.08" vaporized=""/>
    <tripinfo id="7145" depart="180.00" departLane="55717665_0" departPos="5.10" departSpeed="35.09" departDelay="0.85" arrival="396.00" arrivalLane="-E43_2" arrivalPos="21.17" arrivalSpeed="6.61" duration="216.00" routeLength="3332.88" waitingTime="0.00" waitingCount="0" stopTime="0.00" timeLoss="31.95" rerouteNo="1" devices="tripinfo_7145 routing_7145" vType="DEFAULT_VEHTYPE" speedFactor="0.89" vaporized=""/>
    <tripinfo id="931" depart="125.00" departLane="E45_2" departPos="5.10" departSpeed="8.72" departDelay="0.00" arrival="403.00" arrivalLane="-30240188_0" arrivalPos="24.72" arrivalSpeed="13.30" duration="278.00" routeLength="3402.38" waitingTime="21.00" waitingCount="1" stopTime="0.00" timeLoss="57.99" rerouteNo="1" devices="tripinfo_931 routing_931" vType="DEFAULT_VEHTYPE" speedFactor="1.05" vaporized=""/>
    <tripinfo id="752" depart="37.00" departLane="-E51_2" departPos="5.10" departSpeed="8.42" departDelay="0.36" arrival="406.00" arrivalLane="-30240188_0" arrivalPos="24.72" arrivalSpeed="13.66" duration="369.00" routeLength="3609.72" waitingTime="125.00" waitingCount="3" stopTime="0.00" timeLoss="173.90" rerouteNo="1" devices="tripinfo_752 routing_752" vType="DEFAULT_VEHTYPE" speedFactor="1.01" vaporized=""/>
    <tripinfo id="4218" depart="212.00" departLane="-E72_2" departPos="5.10" departSpeed="9.76" departDelay="0.28" arrival="428.00" arrivalLane="289441726_0" arrivalPos="198.23" arrivalSpeed="32.45" duration="216.00" routeLength="5050.73" waitingTime="1.00" waitingCount="1" stopTime="0.00" timeLoss="43.77" rerouteNo="1" devices="tripinfo_4218 routing_4218" vType="DEFAULT_VEHTYPE" speedFactor="1.17" vaporized=""/>
    <tripinfo id="6757" depart="135.00" departLane="327070358_0" departPos="5.10" departSpeed="25.75" departDelay="0.15" arrival="435.00" arrivalLane="E73_2" arrivalPos="125.96" arrivalSpeed="7.06" duration="300.00" routeLength="5022.77" waitingTime="34.00" waitingCount="1" stopTime="0.00" timeLoss="59.67" rerouteNo="1" devices="tripinfo_6757 routing_6757" vType="DEFAULT_VEHTYPE" speedFactor="0.93" vaporized=""/>
    <tripinfo id="5761" depart="201.00" departLane="-30240188_0" departPos="5.10" departSpeed="15.72" departDelay="0.87" arrival="479.00" arrivalLane="E45_2" arrivalPos="116.21" arrivalSpeed="9.10" duration="278.00" routeLength="3559.29" waitingTime="28.00" waitingCount="3" stopTime="0.00" timeLoss="89.10" rerouteNo="1" devices="tripinfo_5761 routing_5761" vType="DEFAULT_VEHTYPE" speedFactor="1.13" vaporized=""/>
    <tripinfo id="5805" depart="281.00" departLane="-30240188_0" departPos="5.10" departSpeed="13.29" departDelay="0.87" arrival="487.00" arrivalLane="-E74_2" arrivalPos="213.95" arrivalSpeed="6.84" duration="206.00" routeLength="1682.96" waitingTime="33.00" waitingCount="2" stopTime="0.00" timeLoss="58.06" rerouteNo="1" devices="tripinfo_5805 routing_5805" vType="DEFAULT_VEHTYPE" speedFactor="0.96" vaporized=""/>
    <tripinfo id="136" depart="322.00" departLane="E73_2" departPos="5.10" departSpeed="7.50" departDelay="0.93" arrival="493.00" arrivalLane="-772719711#0_2" arrivalPos="172.49" arrivalSpeed="6.34" duration="171.00" routeLength="1203.64" waitingTime="9.00" waitingCount="1" stopTime="0.00" timeLoss="27.48" rerouteNo="1" devices="tripinfo_136 routing_136" vType="DEFAULT_VEHTYPE" speedFactor="0.90" vaporized=""/>
    <tripinfo id="4288" depart="257.00" departLane="-E71_2" departPos="5.10" departSpeed="9.18" departDelay="0.51" arrival="514.00" arrivalLane="541602725_0" arrivalPos="69.26" arrivalSpeed="23.95" duration="257.00" routeLength="3245.87" waitingTime="47.00" waitingCount="3" stopTime="0.00" timeLoss="79.45" rerouteNo="1" devices="tripinfo_4288 routing_4288" vType="DEFAULT_VEHTYPE" speedFactor="1.10" vaporized=""/>
    <tripinfo id="4994" depart="283.00" departLane="-E70_2" departPos="5.10" departSpeed="8.64" departDelay="0.54" arrival="520.00" arrivalLane="541602725_0" arrivalPos="69.26" arrivalSpeed="22.43" duration="237.00" routeLength="3124.30" waitingTime="35.00" waitingCount="2" stopTime="0.00" timeLoss="61.26" rerouteNo="1" devices="tripinfo_4994 routing_4994" vType="DEFAULT_VEHTYPE" speedFactor="1.04" vaporized=""/>
    <tripinfo id="945" depart="201.00" departLane="E71_2" departPos="5.10" departSpeed="7.76" departDelay="0.60" arrival="522.00" arrivalLane="-30240188_0" arrivalPos="24.72" arrivalSpeed="12.43" duration="321.00" routeLength="2810.22" waitingTime="141.00" waitingCount="4" stopTime="0.00" timeLoss="181.18" rerouteNo="1" devices="tripinfo_945 routing_945" vType="DEFAULT_VEHTYPE" speedFactor="0.93" vaporized=""/>
    <tripinfo id="535" depart="341.00" departLane="E48_2" departPos="5.10" departSpeed="9.74" departDelay="0.20" arrival="546.00" arrivalLane="504569020#1_0" arrivalPos="98.87" arrivalSpeed="9.36" duration="205.00" routeLength="1592.44" waitingTime="58.00" waitingCount="1" stopTime="0.00" timeLoss="82.42" rerouteNo="1" devices="tripinfo_535 routing_535" vType="DEFAULT_VEHTYPE" speedFactor="1.17" vaporized=""/>
    <tripinfo id="4689" depart="140.00" departLane="E65_2" departPos="5.10" departSpeed="7.80" departDelay="0.06" arrival="584.00" arrivalLane="541602725_0" arrivalPos="69.26" arrivalSpeed="19.69" duration="444.00" routeLength="5528.32" waitingTime="103.00" waitingCount="4" stopTime="0.00" timeLoss="169.80" rerouteNo="1" devices="tripinfo_4689 routing_4689" vType="DEFAULT_VEHTYPE" speedFactor="0.94" vaporized=""/>
    <tripinfo id="4087" depart="211.00" departLane="-E51_2" departPos="5.10" departSpeed="9.62" departDelay="0.82" arrival="603.00" arrivalLane="289441726_0" arrivalPos="198.23" arrivalSpeed="31.44" duration="392.00" routeLength="5967.25" waitingTime="110.00" waitingCount="2" stopTime="0.00" timeLoss="170.86" rerouteNo="1" devices="tripinfo_4087 routing_4087" vType="DEFAULT_VEHTYPE" speedFactor="1.15" vaporized=""/>
    <tripinfo id="7079" depart="444.00" departLane="55717665_0" departPos="5.10" departSpeed="35.76" departDelay="0.11" arrival="616.00" arrivalLane="-E69_2" arrivalPos="192.46" arrivalSpeed="6.51" duration="172.00" routeLength="2662.14" waitingTime="7.00" waitingCount="1" stopTime="0.00" timeLoss="27.41" rerouteNo="1" devices="tripinfo_7079 routing_7079" vType="DEFAULT_VEHTYPE" speedFactor="0.91" vaporized=""/>
    <tripinfo id="7193" depart="451.00" departLane="55717665_1" departPos="5.10" departSpeed="38.37" departDelay="0.59" arrival="633.00" arrivalLane="E52_2" arrivalPos="37.98" arrivalSpeed="7.41" duration="182.00" routeLength="3156.02" waitingTime="4.00" waitingCount="1" stopTime="0.00" timeLoss="36.43" rerouteNo="1" devices="tripinfo_7193 routing_7193" vType="DEFAULT_VEHTYPE" speedFactor="0.97" vaporized=""/>
    <tripinfo id="5059" depart="265.00" departLane="E45_2" departPos="5.10" departSpeed="7.50" departDelay="0.01" arrival="638.00" arrivalLane="541602725_0" arrivalPos="69.26" arrivalSpeed="18.90" duration="373.00" routeLength="5260.38" waitingTime="14.00" waitingCount="2" stopTime="0.00" timeLoss="62.29" rerouteNo="1" devices="tripinfo_5059 routing_5059" vType="DEFAULT_VEHTYPE" speedFactor="0.90" vaporized=""/>
    <tripinfo id="4205" depart="200.00" departLane="-E47_2" departPos="5.10" departSpeed="7.90" departDelay="0.03" arrival="643.00" arrivalLane="289441726_0" arrivalPos="198.23" arrivalSpeed="25.90" duration="443.00" routeLength="6311.75" waitingTime="52.00" waitingCount="2" stopTime="0.00" timeLoss="130.04" rerouteNo="1" devices="tripinfo_4205 routing_4205" vType="DEFAULT_VEHTYPE" speedFactor="0.95" vaporized=""/>
    <tripinfo id="197" depart="216.00" departLane="E49_2" departPos="5.10" departSpeed="8.29" departDelay="0.14" arrival="643.00" arrivalLane="-772719711#0_2" arrivalPos="172.49" arrivalSpeed="7.00" duration="427.00" routeLength="2182.70" waitingTime="171.00" waitingCount="4" stopTime="0.00" timeLoss="218.99" rerouteNo="1" devices="tripinfo_197 routing_197" vType="DEFAULT_VEHTYPE" speedFactor="0.99" vaporized=""/>
    <tripinfo id="444" depart="356.00" departLane="-E47_2" departPos="5.10" departSpeed="8.47" departDelay="0.64" arrival="657.00" arrivalLane="-772719711#0_2" arrivalPos="172.49" arrivalSpeed="8.19" duration="301.00" routeLength="2204.68" waitingTime="4.00" waitingCount="1" stopTime="0.00" timeLoss="38.48" rerouteNo="1" devices="tripinfo_444 routing_444" vType="DEFAULT_VEHTYPE" speedFactor="1.02" vaporized=""/>
    <tripinfo id="911" depart="429.00" departLane="-504569022_2" departPos="5.10" departSpeed="8.22" departDelay="0.16" arrival="668.00" arrivalLane="-30240188_0" arrivalPos="24.72" arrivalSpeed="13.38" duration="239.00" routeLength="2098.17" waitingTime="11.00" waitingCount="2" stopTime="0.00" timeLoss="49.56" rerouteNo="1" devices="tripinfo_911 routing_911" vType="DEFAULT_VEHTYPE" speedFactor="0.99" vaporized=""/>
    <tripinfo id="4464" depart="422.00" departLane="-E69_2" departPos="5.10" departSpeed="8.46" departDelay="0.06" arrival="678.00" arrivalLane="541602725_0" arrivalPos="69.26" arrivalSpeed="21.77" duration="256.00" routeLength="3162.95" waitingTime="43.00" waitingCount="3" stopTime="0.00" timeLoss="72.67" rerouteNo="1" devices="tripinfo_4464 routing_4464" vType="DEFAULT_VEHTYPE" speedFactor="1.02" vaporized=""/>
    <tripinfo id="187" depart="465.00" departLane="E43_2" departPos="5.10" departSpeed="7.96" departDelay="0.84" arrival="691.00" arrivalLane="504569020#1_0" arrivalPos="98.87" arrivalSpeed="7.04" duration="226.00" routeLength="1980.17" waitingTime="0.00" waitingCount="0" stopTime="0.00" timeLoss="26.78" rerouteNo="1" devices="tripinfo_187 routing_187" vType="DEFAULT_VEHTYPE" speedFactor="0.96" vaporized=""/>
    <tripinfo id="4517" depart="458.00" departLane="-504569022_2" departPos="5.10" departSpeed="8.79" departDelay="0.33" arrival="715.00" arrivalLane="541602725_1" arrivalPos="69.26" arrivalSpeed="22.42" duration="257.00" routeLength="3309.48" waitingTime="37.00" waitingCount="2" stopTime="0.00" timeLoss="69.12" rerouteNo="1" devices="tripinfo_4517 routing_4517" vType="DEFAULT_VEHTYPE" speedFactor="1.06" vaporized=""/>
    <tripinfo id="4392" depart="513.00" departLane="E74_2" departPos="5.10" departSpeed="8.06" departDelay="0.79" arrival="716.00" arrivalLane="541602725_0" arrivalPos="69.26" arrivalSpeed="20.64" duration="203.00" routeLength="2856.89" waitingTime="32.00" waitingCount="1" stopTime="0.00" timeLoss="48.22" rerouteNo="1" devices="tripinfo_4392 routing_4392" vType="DEFAULT_VEHTYPE" speedFactor="0.97" vaporized=""/>
    <tripinfo id="5161" depart="527.00" departLane="E74_2" departPos="5.10" departSpeed="8.34" departDelay="0.91" arrival="719.00" arrivalLane="541602725_0" arrivalPos="69.26" arrivalSpeed="21.56" duration="192.00" routeLength="2856.89" waitingTime="21.00" waitingCount="2" stopTime="0.00" timeLoss="42.33" rerouteNo="1" devices="tripinfo_5161 routing_5161" vType="DEFAULT_VEHTYPE" speedFactor="1.00" vaporized=""/>
    <tripinfo id="854" depart="339.00" departLane="E49_2" departPos="5.10" departSpeed="7.12" departDelay="0.55" arrival="723.00" arrivalLane="-30240188_0" arrivalPos="24.72" arrivalSpeed="11.40" duration="384.00" routeLength="3547.03" waitingTime="103.00" waitingCount="4" stopTime="0.00" timeLoss="161.63" rerouteNo="1" devices="tripinfo_854 routing_854" vType="DEFAULT_VEHTYPE" speedFactor="0.85" vaporized=""/>
    <tripinfo id="322" depart="522.00" departLane="E44_2" departPos="5.10" departSpeed="8.13" departDelay="0.30" arrival="740.00" arrivalLane="504569020#1_0" arrivalPos="98.87" arrivalSpeed="7.91" duration="218.00" routeLength="1836.85" waitingTime="20.00" waitingCount="2" stopTime="0.00" timeLoss="54.27" rerouteNo="1" devices="tripinfo_322 routing_322" vType="DEFAULT_VEHTYPE" speedFactor="0.98" vaporized=""/>
    <tripinfo id="4169" depart="436.00" departLane="E69_2" departPos="5.10" departSpeed="7.35" departDelay="0.54" arrival="750.00" arrivalLane="289441726_0" arrivalPos="198.23" arrivalSpeed="23.82" duration="314.00" routeLength="5178.80" waitingTime="38.00" waitingCount="2" stopTime="0.00" timeLoss="67.85" rerouteNo="1" devices="tripinfo_4169 routing_4169" vType="DEFAULT_VEHTYPE" speedFactor="0.88" vaporized=""/>
    <tripinfo id="4304" depart="452.00" departLane="E71_2" departPos="5.10" departSpeed="7.83" departDelay="0.98" arrival="752.00" arrivalLane="541602725_0" arrivalPos="69.26" arrivalSpeed="19.74" duration="300.00" routeLength="4668.22" waitingTime="47.00" waitingCount="2" stopTime="0.00" timeLoss="106.56" rerouteNo="1" devices="tripinfo_4304 routing_4304" vType="DEFAULT_VEHTYPE" speedFactor="0.94" vaporized=""/>
    <tripinfo id="3383" depart="72.00" departLane="E65_2" departPos="5.10" departSpeed="8.71" departDelay="0.25" arrival="754.00" arrivalLane="289444419_0" arrivalPos="726.79" arrivalSpeed="16.70" duration="682.00" routeLength="12252.69" waitingTime="56.00" waitingCount="3" stopTime="0.00" timeLoss="129.92" rerouteNo="1" devices="tripinfo_3383 routing_3383" vType="DEFAULT_VEHTYPE" speedFactor="1.05" vaporized=""/>
    <tripinfo id="190" depart="430.00" departLane="E48_2" departPos="5.10" departSpeed="7.81" departDelay="0.33" arrival="756.00" arrivalLane="-772719711#0_2" arrivalPos="172.49" arrivalSpeed="6.92" duration="326.00" routeLength="1885.73" waitingTime="53.00" waitingCount="2" stopTime="0.00" timeLoss="83.24" rerouteNo="1" devices="tripinfo_190 routing_190" vType="DEFAULT_VEHTYPE" speedFactor="0.94" vaporized=""/>
    <tripinfo id="3477" depart="134.00" departLane="-504569022_2" departPos="5.10" departSpeed="8.26" departDelay="0.17" arrival="757.00" arrivalLane="289444419_0" arrivalPos="726.79" arrivalSpeed="15.50" duration="623.00" routeLength="9470.20" waitingTime="43.00" waitingCount="2" stopTime="0.00" timeLoss="92.81" rerouteNo="1" devices="tripinfo_3477 routing_3477" vType="DEFAULT_VEHTYPE" speedFactor="0.99" vaporized=""/>
    <tripinfo id="6703" depart="236.00" departLane="2597456_0" departPos="5.10" departSpeed="19.67" departDelay="0.07" arrival="770.00" arrivalLane="E74_2" arrivalPos="213.95" arrivalSpeed="9.54" duration="534.00" routeLength="11128.44" waitingTime="39.00" waitingCount="2" stopTime="0.00" timeLoss="81.27" rerouteNo="1" devices="tripinfo_6703 routing_6703" vType="DEFAULT_VEHTYPE" speedFactor="1.18" vaporized=""/>
    <tripinfo id="4317" depart="371.00" departLane="E49_2" departPos="5.10" departSpeed="8.30" departDelay="0.40" arrival="778.00" arrivalLane="541602725_0" arrivalPos="69.26" arrivalSpeed="21.30" duration="407.00" routeLength="5405.03" waitingTime="84.00" waitingCount="4" stopTime="0.00" timeLoss="164.15" rerouteNo="1" devices="tripinfo_4317 routing_4317" vType="DEFAULT_VEHTYPE" speedFactor="1.00" vaporized=""/>
    <tripinfo id="5826" depart="143.00" departLane="-384524948#0_0" departPos="5.10" departSpeed="9.65" departDelay="0.80" arrival="784.00" arrivalLane="-E69_2" arrivalPos="192.46" arrivalSpeed="8.56" duration="641.00" routeLength="9896.40" waitingTime="98.00" waitingCount="4" stopTime="0.00" timeLoss="165.77" rerouteNo="1" devices="tripinfo_5826 routing_5826" vType="DEFAULT_VEHTYPE" speedFactor="1.16" vaporized=""/>
    <tripinfo id="2328" depart="75.00" departLane="E44_2" departPos="5.10" departSpeed="7.81" departDelay="0.46" arrival="797.00" arrivalLane="479885266_4" arrivalPos="34.81" arrivalSpeed="12.71" duration="722.00" routeLength="11950.11" waitingTime="56.00" waitingCount="3" stopTime="0.00" timeLoss="121.31" rerouteNo="1" devices="tripinfo_2328 routing_2328" vType="DEFAULT_VEHTYPE" speedFactor="0.94" vaporized=""/>
    <tripinfo id="3578" depart="281.00" departLane="-E74_2" departPos="5.10" departSpeed="9.10" departDelay="0.60" arrival="797.00" arrivalLane="289444419_0" arrivalPos="726.79" arrivalSpeed="16.98" duration="516.00" routeLength="11332.82" waitingTime="0.00" waitingCount="0" stopTime="0.00" timeLoss="36.29" rerouteNo="1" devices="tripinfo_3578 routing_3578" vType="DEFAULT_VEHTYPE" speedFactor="1.09" vaporized=""/>
    <tripinfo id="7514" depart="129.00" departLane="317240329_0" departPos="5.10" departSpeed="6.24" departDelay="0.76" arrival="798.00" arrivalLane="E69_2" arrivalPos="192.46" arrivalSpeed="8.86" duration="669.00" routeLength="5510.17" waitingTime="162.00" waitingCount="9" stopTime="0.00" timeLoss="259.05" rerouteNo="1" devices="tripinfo_7514 routing_7514" vType="DEFAULT_VEHTYPE" speedFactor="1.12" vaporized=""/>
    <tripinfo id="3992" depart="501.00" departLane="-E51_2" departPos="5.10" departSpeed="8.62" departDelay="0.83" arrival="801.00" arrivalLane="289441726_0" arrivalPos="198.23" arrivalSpeed="27.46" duration="300.00" routeLength="5580.06" waitingTime="9.00" waitingCount="1" stopTime="0.00" timeLoss="44.03" rerouteNo="1" devices="tripinfo_3992 routing_3992" vType="DEFAULT_VEHTYPE" speedFactor="1.03" vaporized=""/>
    <tripinfo id="211" depart="694.00" departLane="-E72_2" departPos="5.10" departSpeed="8.84" departDelay="0.72" arrival="808.00" arrivalLane="504569020#1_0" arrivalPos="98.87" arrivalSpeed="8.67" duration="114.00" routeLength="914.10" waitingTime="0.00" waitingCount="0" stopTime="0.00" timeLoss="9.87" rerouteNo="1" devices="tripinfo_211 routing_211" vType="DEFAULT_VEHTYPE" speedFactor="1.06" vaporized=""/>
    <tripinfo id="249" depart="491.00" departLane="E44_2" departPos="5.10" departSpeed="8.18" departDelay="0.56" arrival="809.00" arrivalLane="-772719711#0_2" arrivalPos="172.49" arrivalSpeed="7.65" duration="318.00" routeLength="2330.39" waitingTime="21.00" waitingCount="1" stopTime="0.00" timeLoss="59.44" rerouteNo="1" devices="tripinfo_249 routing_249" vType="DEFAULT_VEHTYPE" speedFactor="0.98" vaporized=""/>
    <tripinfo id="3104" depart="286.00" departLane="-E70_2" departPos="5.10" departSpeed="8.69" departDelay="0.57" arrival="810.00" arrivalLane="289444419_0" arrivalPos="726.79" arrivalSpeed="17.08" duration="524.00" routeLength="11158.71" waitingTime="9.00" waitingCount="1" stopTime="0.00" timeLoss="41.92" rerouteNo="1" devices="tripinfo_3104 routing_3104" vType="DEFAULT_VEHTYPE" speedFactor="1.04" vaporized=""/>
    <tripinfo id="537" depart="542.00" departLane="E51_2" departPos="5.10" departSpeed="8.39" departDelay="0.34" arrival="818.00" arrivalLane="-721302669#2_2" arrivalPos="262.71" arrivalSpeed="7.17" duration="276.00" routeLength="1899.98" waitingTime="69.00" waitingCount="2" stopTime="0.00" timeLoss="96.85" rerouteNo="1" devices="tripinfo_537 routing_537" vType="DEFAULT_VEHTYPE" speedFactor="1.01" vaporized=""/>
    <tripinfo id="4820" depart="451.00" departLane="-E44_2" departPos="5.10" departSpeed="8.52" departDelay="0.61" arrival="826.00" arrivalLane="541602725_0" arrivalPos="69.26" arrivalSpeed="21.67" duration="375.00" routeLength="5010.08" waitingTime="74.00" waitingCount="4" stopTime="0.00" timeLoss="130.62" rerouteNo="1" devices="tripinfo_4820 routing_4820" vType="DEFAULT_VEHTYPE" speedFactor="1.02" vaporized=""/>
    <tripinfo id="4609" depart="475.00" departLane="E43_2" departPos="5.10" departSpeed="8.20" departDelay="0.89" arrival="831.00" arrivalLane="541602725_0" arrivalPos="69.26" arrivalSpeed="21.73" duration="356.00" routeLength="5127.90" waitingTime="35.00" waitingCount="3" stopTime="0.00" timeLoss="85.91" rerouteNo="1" devices="tripinfo_4609 routing_4609" vType="DEFAULT_VEHTYPE" speedFactor="0.98" vaporized=""/>
    <tripinfo id="4358" depart="446.00" departLane="-E46_2" departPos="5.10" departSpeed="7.62" departDelay="0.71" arrival="837.00" arrivalLane="541602725_0" arrivalPos="69.26" arrivalSpeed="19.45" duration="391.00" routeLength="5291.65" waitingTime="22.00" waitingCount="3" stopTime="0.00" timeLoss="79.09" rerouteNo="1" devices="tripinfo_4358 routing_4358" vType="DEFAULT_VEHTYPE" speedFactor="0.91" vaporized=""/>
    <tripinfo id="6768" depart="485.00" departLane="327070358_0" departPos="5.10" departSpeed="28.68" departDelay="0.91" arrival="837.00" arrivalLane="-E43_2" arrivalPos="21.17" arrivalSpeed="7.86" duration="352.00" routeLength="5678.61" waitingTime="71.00" waitingCount="1" stopTime="0.00" timeLoss="103.62" rerouteNo="1" devices="tripinfo_6768 routing_6768" vType="DEFAULT_VEHTYPE" speedFactor="1.03" vaporized=""/>
    <tripinfo id="6522" depart="139.00" departLane="2597456_0" departPos="5.10" departSpeed="15.69" departDelay="0.30" arrival="845.00" arrivalLane="E44_2" arrivalPos="112.64" arrivalSpeed="6.94" duration="706.00" routeLength="11543.51" waitingTime="40.00" waitingCount="3" stopTime="0.00" timeLoss="87.07" rerouteNo="1" devices="tripinfo_6522 routing_6522" vType="DEFAULT_VEHTYPE" speedFactor="0.94" vaporized=""/>
    <tripinfo id="5739" depart="614.00" departLane="-30240188_0" departPos="5.10" departSpeed="14.79" departDelay="0.27" arrival="845.00" arrivalLane="E70_2" arrivalPos="149.08" arrivalSpeed="7.61" duration="231.00" routeLength="2441.54" waitingTime="64.00" waitingCount="3" stopTime="0.00" timeLoss="103.02" rerouteNo="1" devices="tripinfo_5739 routing_5739" vType="DEFAULT_VEHTYPE" speedFactor="1.06" vaporized=""/>
    <tripinfo id="7293" depart="653.00" departLane="55717665_0" departPos="5.10" departSpeed="39.61" departDelay="0.87" arrival="847.00" arrivalLane="E44_2" arrivalPos="112.64" arrivalSpeed="7.93" duration="194.00" routeLength="3005.71" waitingTime="0.00" waitingCount="0" stopTime="0.00" timeLoss="22.87" rerouteNo="1" devices="tripinfo_7293 routing_7293" vType="DEFAULT_VEHTYPE" speedFactor="1.00" vaporized=""/>
    <tripinfo id="7189" depart="598.00" departLane="55717665_0" departPos="5.10" departSpeed="42.31" departDelay="0.91" arrival="849.00" arrivalLane="-E49_2" arrivalPos="121.44" arrivalSpeed="8.36" duration="251.00" routeLength="3415.62" waitingTime="62.00" waitingCount="3" stopTime="0.00" timeLoss="98.24" rerouteNo="1" devices="tripinfo_7189 routing_7189" vType="DEFAULT_VEHTYPE" speedFactor="1.07" vaporized=""/>
    <tripinfo id="4110" depart="510.00" departLane="E49_2" departPos="5.10" departSpeed="8.47" departDelay="0.46" arrival="850.00" arrivalLane="289441726_0" arrivalPos="198.23" arrivalSpeed="27.23" duration="340.00" routeLength="5922.23" waitingTime="17.00" waitingCount="2" stopTime="0.00" timeLoss="65.09" rerouteNo="1" devices="tripinfo_4110 routing_4110" vType="DEFAULT_VEHTYPE" speedFactor="1.02" vaporized=""/>
    <tripinfo id="4441" depart="537.00" departLane="-E65_2" departPos="5.10" departSpeed="8.69" departDelay="0.80" arrival="858.00" arrivalLane="541602725_0" arrivalPos="69.26" arrivalSpeed="22.74" duration="321.00" routeLength="5294.34" waitingTime="1.00" waitingCount="1" stopTime="0.00" timeLoss="47.63" rerouteNo="1" devices="tripinfo_4441 routing_4441" vType="DEFAULT_VEHTYPE" speedFactor="1.04" vaporized=""/>
    <tripinfo id="794" depart="685.00" departLane="E74_2" departPos="5.10" departSpeed="8.59" departDelay="0.63" arrival="862.00" arrivalLane="-30240188_0" arrivalPos="24.72" arrivalSpeed="13.91" duration="177.00" routeLength="1645.58" waitingTime="22.00" waitingCount="3" stopTime="0.00" timeLoss="43.78" rerouteNo="1" devices="tripinfo_794 routing_794" vType="DEFAULT_VEHTYPE" speedFactor="1.03" vaporized=""/>
    <tripinfo id="711" depart="574.00" departLane="E48_2" departPos="5.10" departSpeed="7.55" departDelay="0.05" arrival="878.00" arrivalLane="-30240188_0" arrivalPos="24.72" arrivalSpeed="11.74" duration="304.00" routeLength="3432.91" waitingTime="47.00" waitingCount="4" stopTime="0.00" timeLoss="99.03" rerouteNo="1" devices="tripinfo_711 routing_711" vType="DEFAULT_VEHTYPE" speedFactor="0.91" vaporized=""/>
    <tripinfo id="605" depart="675.00" departLane="E51_2" departPos="5.10" departSpeed="9.19" departDelay="0.36" arrival="892.00" arrivalLane="-721302669#2_2" arrivalPos="262.71" arrivalSpeed="8.84" duration="217.00" routeLength="1899.98" waitingTime="22.00" waitingCount="3" stopTime="0.00" timeLoss="53.68" rerouteNo="1" devices="tripinfo_605 routing_605" vType="DEFAULT_VEHTYPE" speedFactor="1.10" vaporized=""/>
    <tripinfo id="989" depart="674.00" departLane="-E71_2" departPos="5.10" departSpeed="7.84" departDelay="0.31" arrival="916.00" arrivalLane="-30240188_0" arrivalPos="24.72" arrivalSpeed="12.45" duration="242.00" routeLength="2697.91" waitingTime="58.00" waitingCount="2" stopTime="0.00" timeLoss="89.53" rerouteNo="1" devices="tripinfo_989 routing_989" vType="DEFAULT_VEHTYPE" speedFactor="0.94" vaporized=""/>
    <tripinfo id="7032" depart="722.00" departLane="55717665_0" departPos="5.10" departSpeed="44.11" departDelay="0.69" arrival="918.00" arrivalLane="-E49_2" arrivalPos="121.44" arrivalSpeed="8.16" duration="196.00" routeLength="3415.62" waitingTime="12.00" waitingCount="1" stopTime="0.00" timeLoss="49.42" rerouteNo="1" devices="tripinfo_7032 routing_7032" vType="DEFAULT_VEHTYPE" speedFactor="1.12" vaporized=""/>
    <personinfo id="cust12" depart="261.00" type="DEFAULT_PEDTYPE">
        <ride waitingTime="378.00" vehicle="taxiV7" depart="639.00" arrival="923.00" arrivalPos="262.71" duration="284.00" routeLength="1663.19" timeLoss="88.62"/>
    </personinfo>
    <tripinfo id="3799" depart="200.00" departLane="-E51_2" departPos="5.10" departSpeed="7.64" departDelay="0.70" arrival="925.00" arrivalLane="289444419_0" arrivalPos="726.79" arrivalSpeed="14.47" duration="725.00" routeLength="12192.09" waitingTime="43.00" waitingCount="2" stopTime="0.00" timeLoss="101.94" rerouteNo="1" devices="tripinfo_3799 routing_3799" vType="DEFAULT_VEHTYPE" speedFactor="0.92" vaporized=""/>
    <tripinfo id="5746" depart="646.00" departLane="-30240188_0" departPos="5.10" departSpeed="15.23" departDelay="0.53" arrival="929.00" arrivalLane="E44_2" arrivalPos="112.64" arrivalSpeed="8.46" duration="283.00" routeLength="3026.17" waitingTime="37.00" waitingCount="4" stopTime="0.00" timeLoss="94.60" rerouteNo="1" devices="tripinfo_5746 routing_5746" vType="DEFAULT_VEHTYPE" speedFactor="1.10" vaporized=""/>
    <tripinfo id="3501" depart="136.00" departLane="E48_2" departPos="5.10" departSpeed="7.32" departDelay="0.23" arrival="946.00" arrivalLane="289444419_0" arrivalPos="726.79" arrivalSpeed="14.03" duration="810.00" routeLength="12015.74" waitingTime="115.00" waitingCount="3" stopTime="0.00" timeLoss="174.10" rerouteNo="1" devices="tripinfo_3501 routing_3501" vType="DEFAULT_VEHTYPE" speedFactor="0.88" vaporized=""/>
    <tripinfo id="2540" depart="293.00" departLane="E46_2" departPos="5.10" departSpeed="9.06" departDelay="0.48" arrival="957.00" arrivalLane="479885266_4" arrivalPos="34.81" arrivalSpeed="13.43" duration="664.00" routeLength="11558.94" waitingTime="67.00" waitingCount="2" stopTime="0.00" timeLoss="137.49" rerouteNo="1" devices="tripinfo_2540 routing_2540" vType="DEFAULT_VEHTYPE" speedFactor="1.09" vaporized=""/>
    <tripinfo id="3854" depart="420.00" departLane="E69_2" departPos="5.10" departSpeed="9.32" departDelay="0.34" arrival="957.00" arrivalLane="289444419_0" arrivalPos="726.79" arrivalSpeed="18.43" duration="537.00" routeLength="11404.10" waitingTime="13.00" waitingCount="2" stopTime="0.00" timeLoss="61.08" rerouteNo="1" devices="tripinfo_3854 routing_3854" vType="DEFAULT_VEHTYPE" speedFactor="1.12" vaporized=""/>