<?xml version="1.0" encoding="UTF-8"?>

<!-- generated on 2022-09-02 13:43:43 by Eclipse SUMO GUI Version 1.14.1
<configuration xmlns:xsi="http://www.w3.org/2001/XMLSchema-instance" xsi:noNamespaceSchemaLocation="http://sumo.dlr.de/xsd/sumoConfiguration.xsd">

    <input>
        <net-file value="osm-test.net.xml"/>
        <route-files value="odtest.rou.xml"/>
        <additional-files value="vehicle.add.xml"/>
    </input>

    <output>
        <tripinfo-output value="tripinfos.xml"/>
    </output>

    <processing>
        <ignore-route-errors value="true"/>
    </processing>

    <routing>
        <device.rerouting.adaptation-steps value="18"/>
        <device.rerouting.adaptation-interval value="10"/>
    </routing>

    <report>
        <verbose value="true"/>
        <duration-log.statistics value="true"/>
        <no-step-log value="true"/>
    </report>

    <taxi_device>
        <device.taxi.dispatch-algorithm value="greedy"/>
        <device.taxi.dispatch-period value="30"/>
        <device.taxi.idle-algorithm value="stop"/>
    </taxi_device>

    <traci_server>
        <remote-port value="51187"/>
    </traci_server>

    <gui_only>
        <gui-settings-file value="osm.view.xml"/>
    </gui_only>

</configuration>
-->

<tripinfos xmlns:xsi="http://www.w3.org/2001/XMLSchema-instance" xsi:noNamespaceSchemaLocation="http://sumo.dlr.de/xsd/tripinfo_file.xsd">
    <tripinfo id="7004" depart="13.00" departLane="55717665_0" departPos="5.10" departSpeed="37.01" departDelay="0.57" arrival="152.00" arrivalLane="E71_2" arrivalPos="119.75" arrivalSpeed="6.53" duration="139.00" routeLength="2546.52" waitingTime="0.00" waitingCount="0" stopTime="0.00" timeLoss="14.20" rerouteNo="1" devices="tripinfo_7004 routing_7004" vType="DEFAULT_VEHTYPE" speedFactor="0.94" vaporized=""/>
    <tripinfo id="33" depart="159.00" departLane="504569020#1_0" departPos="5.10" departSpeed="8.48" departDelay="0.31" arrival="284.00" arrivalLane="-504569022_2" arrivalPos="318.77" arrivalSpeed="7.37" duration="125.00" routeLength="946.11" waitingTime="0.00" waitingCount="0" stopTime="0.00" timeLoss="12.16" rerouteNo="1" devices="tripinfo_33 routing_33" vType="DEFAULT_VEHTYPE" speedFactor="1.02" vaporized=""/>
    <tripinfo id="449" depart="92.00" departLane="-E43_2" departPos="5.10" departSpeed="7.14" departDelay="0.61" arrival="327.00" arrivalLane="504569020#1_0" arrivalPos="98.87" arrivalSpeed="6.51" duration="235.00" routeLength="1734.01" waitingTime="20.00" waitingCount="1" stopTime="0.00" timeLoss="48.13" rerouteNo="1" devices="tripinfo_449 routing_449" vType="DEFAULT_VEHTYPE" speedFactor="0.86" vaporized=""/>
    <tripinfo id="4225" depart="39.00" departLane="E51_2" departPos="5.10" departSpeed="9.02" departDelay="0.44" arrival="369.00" arrivalLane="289441726_0" arrivalPos="198.23" arrivalSpeed="29.82" duration="330.00" routeLength="5659.35" waitingTime="67.00" waitingCount="3" stopTime="0.00" timeLoss="120.09" rerouteNo="1" devices="tripinfo_4225 routing_4225" vType="DEFAULT_VEHTYPE" speedFactor="1.08" vaporized=""/>
    <tripinfo id="7145" depart="180.00" departLane="55717665_0" departPos="5.10" departSpeed="35.09" departDelay="0.85" arrival="394.00" arrivalLane="-E43_2" arrivalPos="21.17" arrivalSpeed="7.14" duration="214.00" routeLength="3332.88" waitingTime="0.00" waitingCount="0" stopTime="0.00" timeLoss="29.95" rerouteNo="1" devices="tripinfo_7145 routing_7145" vType="DEFAULT_VEHTYPE" speedFactor="0.89" vaporized=""/>
    <tripinfo id="931" depart="125.00" departLane="E45_2" departPos="5.10" departSpeed="8.72" departDelay="0.00" arrival="403.00" arrivalLane="-30240188_0" arrivalPos="24.72" arrivalSpeed="13.48" duration="278.00" routeLength="3402.38" waitingTime="18.00" waitingCount="1" stopTime="0.00" timeLoss="58.40" rerouteNo="1" devices="tripinfo_931 routing_931" vType="DEFAULT_VEHTYPE" speedFactor="1.05" vaporized=""/>
    <tripinfo id="752" depart="37.00" departLane="-E51_2" departPos="5.10" departSpeed="8.42" departDelay="0.36" arrival="406.00" arrivalLane="-30240188_0" arrivalPos="24.72" arrivalSpeed="13.01" duration="369.00" routeLength="3609.72" waitingTime="123.00" waitingCount="3" stopTime="0.00" timeLoss="172.29" rerouteNo="1" devices="tripinfo_752 routing_752" vType="DEFAULT_VEHTYPE" speedFactor="1.01" vaporized=""/>
    <tripinfo id="4218" depart="212.00" departLane="-E72_2" departPos="5.10" departSpeed="9.76" departDelay="0.28" arrival="420.00" arrivalLane="289441726_0" arrivalPos="198.23" arrivalSpeed="31.97" duration="208.00" routeLength="5050.73" waitingTime="6.00" waitingCount="1" stopTime="0.00" timeLoss="36.27" rerouteNo="1" devices="tripinfo_4218 routing_4218" vType="DEFAULT_VEHTYPE" speedFactor="1.17" vaporized=""/>
    <tripinfo id="6757" depart="135.00" departLane="327070358_0" departPos="5.10" departSpeed="25.75" departDelay="0.15" arrival="434.00" arrivalLane="E73_2" arrivalPos="125.96" arrivalSpeed="6.70" duration="299.00" routeLength="5022.77" waitingTime="36.00" waitingCount="1" stopTime="0.00" timeLoss="59.73" rerouteNo="1" devices="tripinfo_6757 routing_6757" vType="DEFAULT_VEHTYPE" speedFactor="0.93" vaporized=""/>
    <personinfo id="cust31" depart="26.00" type="DEFAULT_PEDTYPE">
        <ride waitingTime="178.00" vehicle="taxiV18" depart="204.00" arrival="454.00" arrivalPos="72.42" duration="250.00" routeLength="1681.59" timeLoss="98.14"/>
    </personinfo>
    <tripinfo id="5761" depart="201.00" departLane="-30240188_0" departPos="5.10" departSpeed="15.72" departDelay="0.87" arrival="479.00" arrivalLane="E45_2" arrivalPos="116.21" arrivalSpeed="8.28" duration="278.00" routeLength="3559.29" waitingTime="32.00" waitingCount="3" stopTime="0.00" timeLoss="88.74" rerouteNo="1" devices="tripinfo_5761 routing_5761" vType="DEFAULT_VEHTYPE" speedFactor="1.13" vaporized=""/>
    <tripinfo id="5805" depart="281.00" departLane="-30240188_0" departPos="5.10" departSpeed="13.29" departDelay="0.87" arrival="487.00" arrivalLane="-E74_2" arrivalPos="213.95" arrivalSpeed="7.40" duration="206.00" routeLength="1682.96" waitingTime="32.00" waitingCount="2" stopTime="0.00" timeLoss="58.54" rerouteNo="1" devices="tripinfo_5805 routing_5805" vType="DEFAULT_VEHTYPE" speedFactor="0.96" vaporized=""/>
    <tripinfo id="136" depart="322.00" departLane="E73_2" departPos="5.10" departSpeed="7.50" departDelay="0.93" arrival="494.00" arrivalLane="-772719711#0_2" arrivalPos="172.49" arrivalSpeed="6.63" duration="172.00" routeLength="1203.64" waitingTime="9.00" waitingCount="1" stopTime="0.00" timeLoss="28.84" rerouteNo="1" devices="tripinfo_136 routing_136" vType="DEFAULT_VEHTYPE" speedFactor="0.90" vaporized=""/>
    <tripinfo id="197" depart="216.00" departLane="E49_2" departPos="5.10" departSpeed="8.29" departDelay="0.14" arrival="496.00" arrivalLane="-772719711#0_2" arrivalPos="172.49" arrivalSpeed="7.72" duration="280.00" routeLength="2182.70" waitingTime="30.00" waitingCount="1" stopTime="0.00" timeLoss="71.09" rerouteNo="1" devices="tripinfo_197 routing_197" vType="DEFAULT_VEHTYPE" speedFactor="0.99" vaporized=""/>
    <tripinfo id="4288" depart="257.00" departLane="-E71_2" departPos="5.10" departSpeed="9.18" departDelay="0.51" arrival="513.00" arrivalLane="541602725_0" arrivalPos="69.26" arrivalSpeed="24.07" duration="256.00" routeLength="3245.87" waitingTime="52.00" waitingCount="3" stopTime="0.00" timeLoss="78.41" rerouteNo="1" devices="tripinfo_4288 routing_4288" vType="DEFAULT_VEHTYPE" speedFactor="1.10" vaporized=""/>
    <tripinfo id="4994" depart="283.00" departLane="-E70_2" departPos="5.10" departSpeed="8.64" departDelay="0.54" arrival="519.00" arrivalLane="541602725_0" arrivalPos="69.26" arrivalSpeed="22.03" duration="236.00" routeLength="3124.30" waitingTime="32.00" waitingCount="2" stopTime="0.00" timeLoss="61.20" rerouteNo="1" devices="tripinfo_4994 routing_4994" vType="DEFAULT_VEHTYPE" speedFactor="1.04" vaporized=""/>
    <tripinfo id="945" depart="201.00" departLane="E71_2" departPos="5.10" departSpeed="7.76" departDelay="0.60" arrival="523.00" arrivalLane="-30240188_0" arrivalPos="24.72" arrivalSpeed="12.45" duration="322.00" routeLength="2810.22" waitingTime="135.00" waitingCount="5" stopTime="0.00" timeLoss="182.14" rerouteNo="1" devices="tripinfo_945 routing_945" vType="DEFAULT_VEHTYPE" speedFactor="0.93" vaporized=""/>
    <tripinfo id="535" depart="341.00" departLane="E48_2" departPos="5.10" departSpeed="9.74" departDelay="0.20" arrival="545.00" arrivalLane="504569020#1_0" arrivalPos="98.87" arrivalSpeed="9.26" duration="204.00" routeLength="1592.44" waitingTime="57.00" waitingCount="1" stopTime="0.00" timeLoss="81.87" rerouteNo="1" devices="tripinfo_535 routing_535" vType="DEFAULT_VEHTYPE" speedFactor="1.17" vaporized=""/>
    <tripinfo id="4689" depart="140.00" departLane="E65_2" departPos="5.10" departSpeed="7.80" departDelay="0.06" arrival="585.00" arrivalLane="541602725_0" arrivalPos="69.26" arrivalSpeed="20.16" duration="445.00" routeLength="5528.32" waitingTime="108.00" waitingCount="4" stopTime="0.00" timeLoss="170.32" rerouteNo="1" devices="tripinfo_4689 routing_4689" vType="DEFAULT_VEHTYPE" speedFactor="0.94" vaporized=""/>
    <personinfo id="cust35" depart="26.00" type="DEFAULT_PEDTYPE">
        <ride waitingTime="431.00" vehicle="taxiV17" depart="457.00" arrival="597.00" arrivalPos="259.48" duration="140.00" routeLength="902.20" timeLoss="70.35"/>
    </personinfo>
    <tripinfo id="4087" depart="211.00" departLane="-E51_2" departPos="5.10" departSpeed="9.62" departDelay="0.82" arrival="612.00" arrivalLane="289441726_0" arrivalPos="198.23" arrivalSpeed="31.37" duration="401.00" routeLength="5967.25" waitingTime="113.00" waitingCount="2" stopTime="0.00" timeLoss="180.97" rerouteNo="1" devices="tripinfo_4087 routing_4087" vType="DEFAULT_VEHTYPE" speedFactor="1.15" vaporized=""/>
    <tripinfo id="7079" depart="444.00" departLane="55717665_0" departPos="5.10" departSpeed="35.76" departDelay="0.11" arrival="618.00" arrivalLane="-E69_2" arrivalPos="192.46" arrivalSpeed="6.92" duration="174.00" routeLength="2662.14" waitingTime="9.00" waitingCount="1" stopTime="0.00" timeLoss="29.06" rerouteNo="1" devices="tripinfo_7079 routing_7079" vType="DEFAULT_VEHTYPE" speedFactor="0.91" vaporized=""/>
    <tripinfo id="5059" depart="265.00" departLane="E45_2" departPos="5.10" departSpeed="7.50" departDelay="0.01" arrival="638.00" arrivalLane="541602725_0" arrivalPos="69.26" arrivalSpeed="19.91" duration="373.00" routeLength="5260.38" waitingTime="13.00" waitingCount="2" stopTime="0.00" timeLoss="60.66" rerouteNo="1" devices="tripinfo_5059 routing_5059" vType="DEFAULT_VEHTYPE" speedFactor="0.90" vaporized=""/>
    <tripinfo id="4205" depart="200.00" departLane="-E47_2" departPos="5.10" departSpeed="7.90" departDelay="0.03" arrival="642.00" arrivalLane="289441726_0" arrivalPos="198.23" arrivalSpeed="25.52" duration="442.00" routeLength="6311.75" waitingTime="49.00" waitingCount="2" stopTime="0.00" timeLoss="130.29" rerouteNo="1" devices="tripinfo_4205 routing_4205" vType="DEFAULT_VEHTYPE" speedFactor="0.95" vaporized=""/>
    <tripinfo id="911" depart="429.00" departLane="-504569022_2" departPos="5.10" departSpeed="8.22" departDelay="0.16" arrival="668.00" arrivalLane="-30240188_0" arrivalPos="24.72" arrivalSpeed="12.70" duration="239.00" routeLength="2098.17" waitingTime="13.00" waitingCount="4" stopTime="0.00" timeLoss="50.32" rerouteNo="1" devices="tripinfo_911 routing_911" vType="DEFAULT_VEHTYPE" speedFactor="0.99" vaporized=""/>
    <tripinfo id="4464" depart="422.00" departLane="-E69_2" departPos="5.10" departSpeed="8.46" departDelay="0.06" arrival="678.00" arrivalLane="541602725_0" arrivalPos="69.26" arrivalSpeed="21.84" duration="256.00" routeLength="3162.95" waitingTime="42.00" waitingCount="3" stopTime="0.00" timeLoss="72.22" rerouteNo="1" devices="tripinfo_4464 routing_4464" vType="DEFAULT_VEHTYPE" speedFactor="1.02" vaporized=""/>
    <tripinfo id="854" depart="339.00" departLane="E49_2" departPos="5.10" departSpeed="7.12" departDelay="0.55" arrival="721.00" arrivalLane="-30240188_0" arrivalPos="24.72" arrivalSpeed="11.31" duration="382.00" routeLength="3547.03" waitingTime="102.00" waitingCount="4" stopTime="0.00" timeLoss="160.93" rerouteNo="1" devices="tripinfo_854 routing_854" vType="DEFAULT_VEHTYPE" speedFactor="0.85" vaporized=""/>
    <tripinfo id="7193" depart="451.00" departLane="55717665_1" departPos="5.10" departSpeed="38.37" departDelay="0.59" arrival="722.00" arrivalLane="E52_2" arrivalPos="37.98" arrivalSpeed="7.72" duration="271.00" routeLength="3156.02" waitingTime="89.00" waitingCount="2" stopTime="0.00" timeLoss="124.82" rerouteNo="1" devices="tripinfo_7193 routing_7193" vType="DEFAULT_VEHTYPE" speedFactor="0.97" vaporized=""/>
    <tripinfo id="187" depart="465.00" departLane="E43_2" departPos="5.10" departSpeed="7.96" departDelay="0.84" arrival="735.00" arrivalLane="504569020#1_0" arrivalPos="98.87" arrivalSpeed="7.09" duration="270.00" routeLength="1635.85" waitingTime="86.00" waitingCount="2" stopTime="0.00" timeLoss="117.30" rerouteNo="1" devices="tripinfo_187 routing_187" vType="DEFAULT_VEHTYPE" speedFactor="0.96" vaporized=""/>
    <tripinfo id="4392" depart="513.00" departLane="E74_2" departPos="5.10" departSpeed="8.06" departDelay="0.79" arrival="745.00" arrivalLane="541602725_0" arrivalPos="69.26" arrivalSpeed="20.91" duration="232.00" routeLength="2856.89" waitingTime="51.00" waitingCount="2" stopTime="0.00" timeLoss="77.59" rerouteNo="1" devices="tripinfo_4392 routing_4392" vType="DEFAULT_VEHTYPE" speedFactor="0.97" vaporized=""/>
    <tripinfo id="4517" depart="458.00" departLane="-504569022_2" departPos="5.10" departSpeed="8.79" departDelay="0.33" arrival="746.00" arrivalLane="541602725_1" arrivalPos="69.26" arrivalSpeed="22.72" duration="288.00" routeLength="3309.48" waitingTime="49.00" waitingCount="3" stopTime="0.00" timeLoss="100.07" rerouteNo="1" devices="tripinfo_4517 routing_4517" vType="DEFAULT_VEHTYPE" speedFactor="1.06" vaporized=""/>
    <tripinfo id="4169" depart="436.00" departLane="E69_2" departPos="5.10" departSpeed="7.35" departDelay="0.54" arrival="748.00" arrivalLane="289441726_0" arrivalPos="198.23" arrivalSpeed="23.51" duration="312.00" routeLength="5178.80" waitingTime="37.00" waitingCount="2" stopTime="0.00" timeLoss="66.20" rerouteNo="1" devices="tripinfo_4169 routing_4169" vType="DEFAULT_VEHTYPE" speedFactor="0.88" vaporized=""/>
    <tripinfo id="4304" depart="452.00" departLane="E71_2" departPos="5.10" departSpeed="7.83" departDelay="0.98" arrival="749.00" arrivalLane="541602725_0" arrivalPos="69.26" arrivalSpeed="20.29" duration="297.00" routeLength="3448.56" waitingTime="50.00" waitingCount="3" stopTime="0.00" timeLoss="85.25" rerouteNo="1" devices="tripinfo_4304 routing_4304" vType="DEFAULT_VEHTYPE" speedFactor="0.94" vaporized=""/>
    <tripinfo id="444" depart="356.00" departLane="-E47_2" departPos="5.10" departSpeed="8.47" departDelay="0.64" arrival="754.00" arrivalLane="-772719711#0_2" arrivalPos="172.49" arrivalSpeed="7.87" duration="398.00" routeLength="2204.68" waitingTime="89.00" waitingCount="4" stopTime="0.00" timeLoss="135.93" rerouteNo="1" devices="tripinfo_444 routing_444" vType="DEFAULT_VEHTYPE" speedFactor="1.02" vaporized=""/>
    <tripinfo id="3383" depart="72.00" departLane="E65_2" departPos="5.10" departSpeed="8.71" departDelay="0.25" arrival="755.00" arrivalLane="289444419_0" arrivalPos="726.79" arrivalSpeed="16.61" duration="683.00" routeLength="12252.69" waitingTime="57.00" waitingCount="3" stopTime="0.00" timeLoss="130.48" rerouteNo="1" devices="tripinfo_3383 routing_3383" vType="DEFAULT_VEHTYPE" speedFactor="1.05" vaporized=""/>
    <tripinfo id="3477" depart="134.00" departLane="-504569022_2" departPos="5.10" departSpeed="8.26" departDelay="0.17" arrival="758.00" arrivalLane="289444419_0" arrivalPos="726.79" arrivalSpeed="15.42" duration="624.00" routeLength="9470.05" waitingTime="44.00" waitingCount="2" stopTime="0.00" timeLoss="94.10" rerouteNo="1" devices="tripinfo_3477 routing_3477" vType="DEFAULT_VEHTYPE" speedFactor="0.99" vaporized=""/>
    <tripinfo id="190" depart="430.00" departLane="E48_2" departPos="5.10" departSpeed="7.81" departDelay="0.33" arrival="760.00" arrivalLane="-772719711#0_2" arrivalPos="172.49" arrivalSpeed="7.29" duration="330.00" routeLength="1885.73" waitingTime="58.00" waitingCount="2" stopTime="0.00" timeLoss="87.15" rerouteNo="1" devices="tripinfo_190 routing_190" vType="DEFAULT_VEHTYPE" speedFactor="0.94" vaporized=""/>
    <tripinfo id="6703" depart="236.00" departLane="2597456_0" departPos="5.10" departSpeed="19.67" departDelay="0.07" arrival="770.00" arrivalLane="E74_2" arrivalPos="213.95" arrivalSpeed="9.11" duration="534.00" routeLength="11128.44" waitingTime="39.00" waitingCount="1" stopTime="0.00" timeLoss="81.66" rerouteNo="1" devices="tripinfo_6703 routing_6703" vType="DEFAULT_VEHTYPE" speedFactor="1.18" vaporized=""/>
    <tripinfo id="5161" depart="527.00" departLane="E74_2" departPos="5.10" departSpeed="8.34" departDelay="0.91" arrival="777.00" arrivalLane="541602725_0" arrivalPos="69.26" arrivalSpeed="22.08" duration="250.00" routeLength="2856.89" waitingTime="61.00" waitingCount="4" stopTime="0.00" timeLoss="100.65" rerouteNo="1" devices="tripinfo_5161 routing_5161" vType="DEFAULT_VEHTYPE" speedFactor="1.00" vaporized=""/>
    <tripinfo id="5826" depart="143.00" departLane="-384524948#0_0" departPos="5.10" departSpeed="9.65" departDelay="0.80" arrival="784.00" arrivalLane="-E69_2" arrivalPos="192.46" arrivalSpeed="9.19" duration="641.00" routeLength="9896.40" waitingTime="96.00" waitingCount="4" stopTime="0.00" timeLoss="166.87" rerouteNo="1" devices="tripinfo_5826 routing_5826" vType="DEFAULT_VEHTYPE" speedFactor="1.16" vaporized=""/>
    <tripinfo id="537" depart="542.00" departLane="E51_2" departPos="5.10" departSpeed="8.39" departDelay="0.34" arrival="787.00" arrivalLane="-721302669#2_2" arrivalPos="262.71" arrivalSpeed="8.38" duration="245.00" routeLength="1657.14" waitingTime="25.00" waitingCount="1" stopTime="0.00" timeLoss="46.71" rerouteNo="1" devices="tripinfo_537 routing_537" vType="DEFAULT_VEHTYPE" speedFactor="1.01" vaporized=""/>
    <personinfo id="cust26" depart="26.00" type="DEFAULT_PEDTYPE">
        <ride waitingTime="655.00" vehicle="taxiV11" depart="681.00" arrival="789.00" arrivalPos="72.42" duration="108.00" routeLength="933.59" timeLoss="28.21"/>
    </personinfo>
    <tripinfo id="3992" depart="501.00" departLane="-E51_2" departPos="5.10" departSpeed="8.62" departDelay="0.83" arrival="792.00" arrivalLane="289441726_0" arrivalPos="198.23" arrivalSpeed="28.45" duration="291.00" routeLength="5580.06" waitingTime="0.00" waitingCount="0" stopTime="0.00" timeLoss="34.70" rerouteNo="1" devices="tripinfo_3992 routing_3992" vType="DEFAULT_VEHTYPE" speedFactor="1.03" vaporized=""/>
    <tripinfo id="3578" depart="281.00" departLane="-E74_2" departPos="5.10" departSpeed="9.10" departDelay="0.60" arrival="793.00" arrivalLane="289444419_0" arrivalPos="726.79" arrivalSpeed="17.23" duration="512.00" routeLength="11332.82" waitingTime="0.00" waitingCount="0" stopTime="0.00" timeLoss="32.35" rerouteNo="1" devices="tripinfo_3578 routing_3578" vType="DEFAULT_VEHTYPE" speedFactor="1.09" vaporized=""/>
    <tripinfo id="2328" depart="75.00" departLane="E44_2" departPos="5.10" departSpeed="7.81" departDelay="0.46" arrival="795.00" arrivalLane="479885266_4" arrivalPos="34.81" arrivalSpeed="12.41" duration="720.00" routeLength="11950.11" waitingTime="57.00" waitingCount="3" stopTime="0.00" timeLoss="120.01" rerouteNo="1" devices="tripinfo_2328 routing_2328" vType="DEFAULT_VEHTYPE" speedFactor="0.94" vaporized=""/>
    <tripinfo id="7514" depart="129.00" departLane="317240329_0" departPos="5.10" departSpeed="6.24" departDelay="0.76" arrival="807.00" arrivalLane="E69_2" arrivalPos="192.46" arrivalSpeed="8.93" duration="678.00" routeLength="5510.17" waitingTime="177.00" waitingCount="9" stopTime="0.00" timeLoss="267.86" rerouteNo="1" devices="tripinfo_7514 routing_7514" vType="DEFAULT_VEHTYPE" speedFactor="1.12" vaporized=""/>
    <tripinfo id="3104" depart="286.00" departLane="-E70_2" departPos="5.10" departSpeed="8.69" departDelay="0.57" arrival="807.00" arrivalLane="289444419_0" arrivalPos="726.79" arrivalSpeed="16.31" duration="521.00" routeLength="11158.71" waitingTime="0.00" waitingCount="0" stopTime="0.00" timeLoss="39.25" rerouteNo="1" devices="tripinfo_3104 routing_3104" vType="DEFAULT_VEHTYPE" speedFactor="1.04" vaporized=""/>
    <tripinfo id="211" depart="694.00" departLane="-E72_2" departPos="5.10" departSpeed="8.84" departDelay="0.72" arrival="808.00" arrivalLane="504569020#1_0" arrivalPos="98.87" arrivalSpeed="8.76" duration="114.00" routeLength="914.10" waitingTime="0.00" waitingCount="0" stopTime="0.00" timeLoss="9.60" rerouteNo="1" devices="tripinfo_211 routing_211" vType="DEFAULT_VEHTYPE" speedFactor="1.06" vaporized=""/>
    <tripinfo id="4820" depart="451.00" departLane="-E44_2" departPos="5.10" departSpeed="8.52" departDelay="0.61" arrival="821.00" arrivalLane="541602725_0" arrivalPos="69.26" arrivalSpeed="22.05" duration="370.00" routeLength="5010.08" waitingTime="68.00" waitingCount="4" stopTime="0.00" timeLoss="125.28" rerouteNo="1" devices="tripinfo_4820 routing_4820" vType="DEFAULT_VEHTYPE" speedFactor="1.02" vaporized=""/>
    <tripinfo id="4317" depart="371.00" departLane="E49_2" departPos="5.10" departSpeed="8.30" departDelay="0.40" arrival="828.00" arrivalLane="541602725_1" arrivalPos="69.26" arrivalSpeed="21.25" duration="457.00" routeLength="5405.03" waitingTime="140.00" waitingCount="4" stopTime="0.00" timeLoss="214.50" rerouteNo="1" devices="tripinfo_4317 routing_4317" vType="DEFAULT_VEHTYPE" speedFactor="1.00" vaporized=""/>
    <personinfo id="cust22" depart="26.00" type="DEFAULT_PEDTYPE">
        <ride waitingTime="302.00" vehicle="taxiV5" depart="328.00" arrival="829.00" arrivalPos="9.51" duration="501.00" routeLength="5695.18" timeLoss="131.52"/>
    </personinfo>
    <tripinfo id="4358" depart="446.00" departLane="-E46_2" departPos="5.10" departSpeed="7.62" departDelay="0.71" arrival="829.00" arrivalLane="541602725_0" arrivalPos="69.26" arrivalSpeed="19.04" duration="383.00" routeLength="5291.65" waitingTime="19.00" waitingCount="3" stopTime="0.00" timeLoss="71.38" rerouteNo="1" devices="tripinfo_4358 routing_4358" vType="DEFAULT_VEHTYPE" speedFactor="0.91" vaporized=""/>
    <tripinfo id="7189" depart="598.00" departLane="55717665_0" departPos="5.10" departSpeed="42.31" departDelay="0.91" arrival="835.00" arrivalLane="-E49_2" arrivalPos="121.44" arrivalSpeed="8.87" duration="237.00" routeLength="3415.62" waitingTime="54.00" waitingCount="1" stopTime="0.00" timeLoss="83.44" rerouteNo="1" devices="tripinfo_7189 routing_7189" vType="DEFAULT_VEHTYPE" speedFactor="1.07" vaporized=""/>
    <tripinfo id="6768" depart="485.00" departLane="327070358_0" departPos="5.10" departSpeed="28.68" departDelay="0.91" arrival="841.00" arrivalLane="-E43_2" arrivalPos="21.17" arrivalSpeed="8.51" duration="356.00" routeLength="5678.61" waitingTime="74.00" waitingCount="2" stopTime="0.00" timeLoss="107.40" rerouteNo="1" devices="tripinfo_6768 routing_6768" vType="DEFAULT_VEHTYPE" speedFactor="1.03" vaporized=""/>
    <personinfo id="cust100" depart="26.00" type="DEFAULT_PEDTYPE">
        <ride waitingTime="280.00" vehicle="taxiV4" depart="306.00" arrival="845.00" arrivalPos="9.51" duration="539.00" routeLength="5973.53" timeLoss="140.94"/>
    </personinfo>
    <tripinfo id="5739" depart="614.00" departLane="-30240188_0" departPos="5.10" departSpeed="14.79" departDelay="0.27" arrival="845.00" arrivalLane="E70_2" arrivalPos="149.08" arrivalSpeed="8.40" duration="231.00" routeLength="2441.54" waitingTime="65.00" waitingCount="3" stopTime="0.00" timeLoss="103.10" rerouteNo="1" devices="tripinfo_5739 routing_5739" vType="DEFAULT_VEHTYPE" speedFactor="1.06" vaporized=""/>
    <tripinfo id="322" depart="522.00" departLane="E44_2" departPos="5.10" departSpeed="8.13" departDelay="0.30" arrival="846.00" arrivalLane="504569020#1_0" arrivalPos="98.87" arrivalSpeed="7.23" duration="324.00" routeLength="1836.85" waitingTime="98.00" waitingCount="3" stopTime="0.00" timeLoss="161.18" rerouteNo="1" devices="tripinfo_322 routing_322" vType="DEFAULT_VEHTYPE" speedFactor="0.98" vaporized=""/>
    <tripinfo id="6522" depart="139.00" departLane="2597456_0" departPos="5.10" departSpeed="15.69" departDelay="0.30" arrival="847.00" arrivalLane="E44_2" arrivalPos="112.64" arrivalSpeed="6.67" duration="708.00" routeLength="11543.51" waitingTime="36.00" waitingCount="2" stopTime="0.00" timeLoss="88.55" rerouteNo="1" devices="tripinfo_6522 routing_6522" vType="DEFAULT_VEHTYPE" speedFactor="0.94" vaporized=""/>
    <tripinfo id="7293" depart="653.00" departLane="55717665_0" departPos="5.10" departSpeed="39.61" departDelay="0.87" arrival="849.00" arrivalLane="E44_2" arrivalPos="112.64" arrivalSpeed="7.11" duration="196.00" routeLength="3005.71" waitingTime="0.00" waitingCount="0" stopTime="0.00" timeLoss="24.83" rerouteNo="1" devices="tripinfo_7293 routing_7293" vType="DEFAULT_VEHTYPE" speedFactor="1.00" vaporized=""/>
    <tripinfo id="794" depart="685.00" departLane="E74_2" departPos="5.10" departSpeed="8.59" departDelay="0.63" arrival="858.00" arrivalLane="-30240188_0" arrivalPos="24.72" arrivalSpeed="13.62" duration="173.00" routeLength="1645.58" waitingTime="21.00" waitingCount="2" stopTime="0.00" timeLoss="39.46" rerouteNo="1" devices="tripinfo_794 routing_794" vType="DEFAULT_VEHTYPE" speedFactor="1.03" vaporized=""/>
    <tripinfo id="4441" depart="537.00" departLane="-E65_2" departPos="5.10" departSpeed="8.69" departDelay="0.80" arrival="875.00" arrivalLane="541602725_0" arrivalPos="69.26" arrivalSpeed="22.47" duration="338.00" routeLength="5294.34" waitingTime="11.00" waitingCount="1" stopTime="0.00" timeLoss="63.49" rerouteNo="1" devices="tripinfo_4441 routing_4441" vType="DEFAULT_VEHTYPE" speedFactor="1.04" vaporized=""/>
    <tripinfo id="711" depart="574.00" departLane="E48_2" departPos="5.10" departSpeed="7.55" departDelay="0.05" arrival="875.00" arrivalLane="-30240188_0" arrivalPos="24.72" arrivalSpeed="12.02" duration="301.00" routeLength="3238.41" waitingTime="33.00" waitingCount="2" stopTime="0.00" timeLoss="69.59" rerouteNo="1" devices="tripinfo_711 routing_711" vType="DEFAULT_VEHTYPE" speedFactor="0.91" vaporized=""/>
    <tripinfo id="605" depart="675.00" departLane="E51_2" departPos="5.10" departSpeed="9.19" departDelay="0.36" arrival="903.00" arrivalLane="-721302669#2_2" arrivalPos="262.71" arrivalSpeed="8.52" duration="228.00" routeLength="1657.14" waitingTime="22.00" waitingCount="1" stopTime="0.00" timeLoss="46.83" rerouteNo="1" devices="tripinfo_605 routing_605" vType="DEFAULT_VEHTYPE" speedFactor="1.10" vaporized=""/>
    <tripinfo id="249" depart="491.00" departLane="E44_2" departPos="5.10" departSpeed="8.18" departDelay="0.56" arrival="909.00" arrivalLane="-772719711#0_2" arrivalPos="172.49" arrivalSpeed="7.96" duration="418.00" routeLength="2380.97" waitingTime="144.00" waitingCount="3" stopTime="0.00" timeLoss="188.63" rerouteNo="1" devices="tripinfo_249 routing_249" vType="DEFAULT_VEHTYPE" speedFactor="0.98" vaporized=""/>
    <tripinfo id="998" depart="590.00" departLane="E65_2" departPos="5.10" departSpeed="7.93" departDelay="0.05" arrival="914.00" arrivalLane="-30240188_0" arrivalPos="24.72" arrivalSpeed="12.94" duration="324.00" routeLength="3304.56" waitingTime="62.00" waitingCount="2" stopTime="0.00" timeLoss="96.39" rerouteNo="1" devices="tripinfo_998 routing_998" vType="DEFAULT_VEHTYPE" speedFactor="0.95" vaporized=""/>
    <tripinfo id="7032" depart="722.00" departLane="55717665_0" departPos="5.10" departSpeed="44.11" departDelay="0.69" arrival="917.00" arrivalLane="-E49_2" arrivalPos="121.44" arrivalSpeed="9.17" duration="195.00" routeLength="3415.62" waitingTime="13.00" waitingCount="1" stopTime="0.00" timeLoss="48.06" rerouteNo="1" devices="tripinfo_7032 routing_7032" vType="DEFAULT_VEHTYPE" speedFactor="1.12" vaporized=""/>
    <personinfo id="cust30" depart="26.00" type="DEFAULT_PEDTYPE">
        <ride waitingTime="352.00" vehicle="taxiV15" depart="378.00" arrival="919.00" arrivalPos="9.51" duration="541.00" routeLength="5279.56" timeLoss="167.13"/>
    </personinfo>
    <tripinfo id="5746" depart="646.00" departLane="-30240188_0" departPos="5.10" departSpeed="15.23" departDelay="0.53" arrival="923.00" arrivalLane="E44_2" arrivalPos="112.64" arrivalSpeed="8.17" duration="277.00" routeLength="3026.17" waitingTime="34.00" waitingCount="2" stopTime="0.00" timeLoss="88.38" rerouteNo="1" devices="tripinfo_5746 routing_5746" vType="DEFAULT_VEHTYPE" speedFactor="1.10" vaporized=""/>
    <tripinfo id="989" depart="674.00" departLane="-E71_2" departPos="5.10" departSpeed="7.84" departDelay="0.31" arrival="923.00" arrivalLane="-30240188_0" arrivalPos="24.72" arrivalSpeed="13.00" duration="249.00" routeLength="2697.91" waitingTime="62.00" waitingCount="3" stopTime="0.00" timeLoss="95.04" rerouteNo="1" devices="tripinfo_989 routing_989" vType="DEFAULT_VEHTYPE" speedFactor="0.94" vaporized=""/>
    <tripinfo id="3799" depart="200.00" departLane="-E51_2" departPos="5.10" departSpeed="7.64" departDelay="0.70" arrival="926.00" arrivalLane="289444419_0" arrivalPos="726.79" arrivalSpeed="15.04" duration="726.00" routeLength="12192.09" waitingTime="43.00" waitingCount="2" stopTime="0.00" timeLoss="104.74" rerouteNo="1" devices="tripinfo_3799 routing_3799" vType="DEFAULT_VEHTYPE" speedFactor="0.92" vaporized=""/>