<?xml version="1.0" encoding="UTF-8"?>

<!-- generated on 2022-08-26 16:12:28 by Eclipse SUMO GUI Version 1.14.1
<configuration xmlns:xsi="http://www.w3.org/2001/XMLSchema-instance" xsi:noNamespaceSchemaLocation="http://sumo.dlr.de/xsd/sumoConfiguration.xsd">

    <input>
        <net-file value="osm-test.net.xml"/>
        <route-files value="odtest.rou.xml"/>
        <additional-files value="vehicle.add.xml"/>
    </input>

    <output>
        <tripinfo-output value="tripinfos.xml"/>
    </output>

    <processing>
        <ignore-route-errors value="true"/>
    </processing>

    <routing>
        <device.rerouting.adaptation-steps value="18"/>
        <device.rerouting.adaptation-interval value="10"/>
    </routing>

    <report>
        <verbose value="true"/>
        <duration-log.statistics value="true"/>
        <no-step-log value="true"/>
    </report>

    <taxi_device>
        <device.taxi.dispatch-algorithm value="greedy"/>
    </taxi_device>

    <traci_server>
        <remote-port value="64915"/>
    </traci_server>

    <gui_only>
        <gui-settings-file value="osm.view.xml"/>
    </gui_only>

</configuration>
-->

<tripinfos xmlns:xsi="http://www.w3.org/2001/XMLSchema-instance" xsi:noNamespaceSchemaLocation="http://sumo.dlr.de/xsd/tripinfo_file.xsd">
    <tripinfo id="7004" depart="13.00" departLane="55717665_0" departPos="5.10" departSpeed="37.01" departDelay="0.57" arrival="151.00" arrivalLane="E71_2" arrivalPos="119.75" arrivalSpeed="6.84" duration="138.00" routeLength="2546.52" waitingTime="0.00" waitingCount="0" stopTime="0.00" timeLoss="13.63" rerouteNo="1" devices="tripinfo_7004 routing_7004" vType="DEFAULT_VEHTYPE" speedFactor="0.94" vaporized=""/>
    <tripinfo id="33" depart="159.00" departLane="504569020#1_0" departPos="5.10" departSpeed="8.48" departDelay="0.31" arrival="284.00" arrivalLane="-504569022_2" arrivalPos="318.77" arrivalSpeed="7.54" duration="125.00" routeLength="946.11" waitingTime="0.00" waitingCount="0" stopTime="0.00" timeLoss="11.87" rerouteNo="1" devices="tripinfo_33 routing_33" vType="DEFAULT_VEHTYPE" speedFactor="1.02" vaporized=""/>
    <tripinfo id="449" depart="92.00" departLane="-E43_2" departPos="5.10" departSpeed="7.14" departDelay="0.61" arrival="327.00" arrivalLane="504569020#1_0" arrivalPos="98.87" arrivalSpeed="6.22" duration="235.00" routeLength="1734.01" waitingTime="20.00" waitingCount="1" stopTime="0.00" timeLoss="48.87" rerouteNo="1" devices="tripinfo_449 routing_449" vType="DEFAULT_VEHTYPE" speedFactor="0.86" vaporized=""/>
    <tripinfo id="4225" depart="39.00" departLane="E51_2" departPos="5.10" departSpeed="9.02" departDelay="0.44" arrival="365.00" arrivalLane="289441726_0" arrivalPos="198.23" arrivalSpeed="29.28" duration="326.00" routeLength="5659.35" waitingTime="72.00" waitingCount="3" stopTime="0.00" timeLoss="116.82" rerouteNo="1" devices="tripinfo_4225 routing_4225" vType="DEFAULT_VEHTYPE" speedFactor="1.08" vaporized=""/>
    <tripinfo id="7145" depart="180.00" departLane="55717665_0" departPos="5.10" departSpeed="35.09" departDelay="0.85" arrival="396.00" arrivalLane="-E43_2" arrivalPos="21.17" arrivalSpeed="6.61" duration="216.00" routeLength="3332.88" waitingTime="0.00" waitingCount="0" stopTime="0.00" timeLoss="31.95" rerouteNo="1" devices="tripinfo_7145 routing_7145" vType="DEFAULT_VEHTYPE" speedFactor="0.89" vaporized=""/>
    <tripinfo id="931" depart="125.00" departLane="E45_2" departPos="5.10" departSpeed="8.72" departDelay="0.00" arrival="403.00" arrivalLane="-30240188_0" arrivalPos="24.72" arrivalSpeed="13.30" duration="278.00" routeLength="3402.38" waitingTime="21.00" waitingCount="1" stopTime="0.00" timeLoss="58.12" rerouteNo="1" devices="tripinfo_931 routing_931" vType="DEFAULT_VEHTYPE" speedFactor="1.05" vaporized=""/>
    <tripinfo id="752" depart="37.00" departLane="-E51_2" departPos="5.10" departSpeed="8.42" departDelay="0.36" arrival="406.00" arrivalLane="-30240188_0" arrivalPos="24.72" arrivalSpeed="13.66" duration="369.00" routeLength="3609.72" waitingTime="125.00" waitingCount="3" stopTime="0.00" timeLoss="173.97" rerouteNo="1" devices="tripinfo_752 routing_752" vType="DEFAULT_VEHTYPE" speedFactor="1.01" vaporized=""/>
    <tripinfo id="4218" depart="212.00" departLane="-E72_2" departPos="5.10" departSpeed="9.76" departDelay="0.28" arrival="428.00" arrivalLane="289441726_0" arrivalPos="198.23" arrivalSpeed="31.86" duration="216.00" routeLength="5050.73" waitingTime="1.00" waitingCount="1" stopTime="0.00" timeLoss="43.87" rerouteNo="1" devices="tripinfo_4218 routing_4218" vType="DEFAULT_VEHTYPE" speedFactor="1.17" vaporized=""/>
    <tripinfo id="6757" depart="135.00" departLane="327070358_0" departPos="5.10" departSpeed="25.75" departDelay="0.15" arrival="435.00" arrivalLane="E73_2" arrivalPos="125.96" arrivalSpeed="7.06" duration="300.00" routeLength="5022.77" waitingTime="34.00" waitingCount="1" stopTime="0.00" timeLoss="59.64" rerouteNo="1" devices="tripinfo_6757 routing_6757" vType="DEFAULT_VEHTYPE" speedFactor="0.93" vaporized=""/>
    <tripinfo id="5761" depart="201.00" departLane="-30240188_0" departPos="5.10" departSpeed="15.72" departDelay="0.87" arrival="478.00" arrivalLane="E45_2" arrivalPos="116.21" arrivalSpeed="8.58" duration="277.00" routeLength="3559.29" waitingTime="28.00" waitingCount="3" stopTime="0.00" timeLoss="88.54" rerouteNo="1" devices="tripinfo_5761 routing_5761" vType="DEFAULT_VEHTYPE" speedFactor="1.13" vaporized=""/>
    <tripinfo id="5805" depart="281.00" departLane="-30240188_0" departPos="5.10" departSpeed="13.29" departDelay="0.87" arrival="486.00" arrivalLane="-E74_2" arrivalPos="213.95" arrivalSpeed="6.87" duration="205.00" routeLength="1682.96" waitingTime="33.00" waitingCount="2" stopTime="0.00" timeLoss="57.44" rerouteNo="1" devices="tripinfo_5805 routing_5805" vType="DEFAULT_VEHTYPE" speedFactor="0.96" vaporized=""/>
    <tripinfo id="136" depart="322.00" departLane="E73_2" departPos="5.10" departSpeed="7.50" departDelay="0.93" arrival="493.00" arrivalLane="-772719711#0_2" arrivalPos="172.49" arrivalSpeed="6.61" duration="171.00" routeLength="1203.64" waitingTime="9.00" waitingCount="1" stopTime="0.00" timeLoss="27.26" rerouteNo="1" devices="tripinfo_136 routing_136" vType="DEFAULT_VEHTYPE" speedFactor="0.90" vaporized=""/>
    <tripinfo id="4288" depart="257.00" departLane="-E71_2" departPos="5.10" departSpeed="9.18" departDelay="0.51" arrival="514.00" arrivalLane="541602725_0" arrivalPos="69.26" arrivalSpeed="23.73" duration="257.00" routeLength="3245.87" waitingTime="49.00" waitingCount="3" stopTime="0.00" timeLoss="78.70" rerouteNo="1" devices="tripinfo_4288 routing_4288" vType="DEFAULT_VEHTYPE" speedFactor="1.10" vaporized=""/>
    <tripinfo id="4994" depart="283.00" departLane="-E70_2" departPos="5.10" departSpeed="8.64" departDelay="0.54" arrival="519.00" arrivalLane="541602725_0" arrivalPos="69.26" arrivalSpeed="22.08" duration="236.00" routeLength="3124.30" waitingTime="36.00" waitingCount="2" stopTime="0.00" timeLoss="61.45" rerouteNo="1" devices="tripinfo_4994 routing_4994" vType="DEFAULT_VEHTYPE" speedFactor="1.04" vaporized=""/>
    <personinfo id="cust12" depart="261.00" type="DEFAULT_PEDTYPE">
        <ride waitingTime="141.00" vehicle="taxiV7" depart="402.00" arrival="522.00" arrivalPos="262.71" duration="120.00" routeLength="726.92" timeLoss="34.65"/>
    </personinfo>
    <tripinfo id="945" depart="201.00" departLane="E71_2" departPos="5.10" departSpeed="7.76" departDelay="0.60" arrival="522.00" arrivalLane="-30240188_0" arrivalPos="24.72" arrivalSpeed="12.43" duration="321.00" routeLength="2810.22" waitingTime="140.00" waitingCount="4" stopTime="0.00" timeLoss="181.12" rerouteNo="1" devices="tripinfo_945 routing_945" vType="DEFAULT_VEHTYPE" speedFactor="0.93" vaporized=""/>
    <tripinfo id="535" depart="341.00" departLane="E48_2" departPos="5.10" departSpeed="9.74" departDelay="0.20" arrival="547.00" arrivalLane="504569020#1_0" arrivalPos="98.87" arrivalSpeed="8.50" duration="206.00" routeLength="1592.44" waitingTime="58.00" waitingCount="1" stopTime="0.00" timeLoss="82.97" rerouteNo="1" devices="tripinfo_535 routing_535" vType="DEFAULT_VEHTYPE" speedFactor="1.17" vaporized=""/>
    <tripinfo id="4689" depart="140.00" departLane="E65_2" departPos="5.10" departSpeed="7.80" departDelay="0.06" arrival="584.00" arrivalLane="541602725_0" arrivalPos="69.26" arrivalSpeed="20.16" duration="444.00" routeLength="5528.32" waitingTime="104.00" waitingCount="4" stopTime="0.00" timeLoss="169.87" rerouteNo="1" devices="tripinfo_4689 routing_4689" vType="DEFAULT_VEHTYPE" speedFactor="0.94" vaporized=""/>
    <tripinfo id="4087" depart="211.00" departLane="-E51_2" departPos="5.10" departSpeed="9.62" departDelay="0.82" arrival="602.00" arrivalLane="289441726_0" arrivalPos="198.23" arrivalSpeed="31.82" duration="391.00" routeLength="5967.25" waitingTime="110.00" waitingCount="2" stopTime="0.00" timeLoss="170.60" rerouteNo="1" devices="tripinfo_4087 routing_4087" vType="DEFAULT_VEHTYPE" speedFactor="1.15" vaporized=""/>
    <tripinfo id="7079" depart="444.00" departLane="55717665_0" departPos="5.10" departSpeed="35.76" departDelay="0.11" arrival="619.00" arrivalLane="-E69_2" arrivalPos="192.46" arrivalSpeed="6.62" duration="175.00" routeLength="2662.14" waitingTime="7.00" waitingCount="1" stopTime="0.00" timeLoss="29.97" rerouteNo="1" devices="tripinfo_7079 routing_7079" vType="DEFAULT_VEHTYPE" speedFactor="0.91" vaporized=""/>
    <tripinfo id="7193" depart="451.00" departLane="55717665_1" departPos="5.10" departSpeed="38.37" departDelay="0.59" arrival="631.00" arrivalLane="E52_2" arrivalPos="37.98" arrivalSpeed="7.16" duration="180.00" routeLength="3156.02" waitingTime="5.00" waitingCount="1" stopTime="0.00" timeLoss="34.40" rerouteNo="1" devices="tripinfo_7193 routing_7193" vType="DEFAULT_VEHTYPE" speedFactor="0.97" vaporized=""/>
    <tripinfo id="5059" depart="265.00" departLane="E45_2" departPos="5.10" departSpeed="7.50" departDelay="0.01" arrival="639.00" arrivalLane="541602725_0" arrivalPos="69.26" arrivalSpeed="18.74" duration="374.00" routeLength="5260.38" waitingTime="15.00" waitingCount="2" stopTime="0.00" timeLoss="61.55" rerouteNo="1" devices="tripinfo_5059 routing_5059" vType="DEFAULT_VEHTYPE" speedFactor="0.90" vaporized=""/>
    <tripinfo id="4205" depart="200.00" departLane="-E47_2" departPos="5.10" departSpeed="7.90" departDelay="0.03" arrival="642.00" arrivalLane="289441726_0" arrivalPos="198.23" arrivalSpeed="25.94" duration="442.00" routeLength="6311.75" waitingTime="51.00" waitingCount="2" stopTime="0.00" timeLoss="129.20" rerouteNo="1" devices="tripinfo_4205 routing_4205" vType="DEFAULT_VEHTYPE" speedFactor="0.95" vaporized=""/>
    <tripinfo id="197" depart="216.00" departLane="E49_2" departPos="5.10" departSpeed="8.29" departDelay="0.14" arrival="644.00" arrivalLane="-772719711#0_2" arrivalPos="172.49" arrivalSpeed="7.71" duration="428.00" routeLength="2182.70" waitingTime="172.00" waitingCount="4" stopTime="0.00" timeLoss="219.53" rerouteNo="1" devices="tripinfo_197 routing_197" vType="DEFAULT_VEHTYPE" speedFactor="0.99" vaporized=""/>
    <tripinfo id="187" depart="465.00" departLane="E43_2" departPos="5.10" departSpeed="7.96" departDelay="0.84" arrival="646.00" arrivalLane="504569020#1_0" arrivalPos="98.87" arrivalSpeed="7.60" duration="181.00" routeLength="1635.85" waitingTime="3.00" waitingCount="1" stopTime="0.00" timeLoss="28.91" rerouteNo="1" devices="tripinfo_187 routing_187" vType="DEFAULT_VEHTYPE" speedFactor="0.96" vaporized=""/>
    <tripinfo id="444" depart="356.00" departLane="-E47_2" departPos="5.10" departSpeed="8.47" departDelay="0.64" arrival="656.00" arrivalLane="-772719711#0_2" arrivalPos="172.49" arrivalSpeed="7.83" duration="300.00" routeLength="2204.68" waitingTime="5.00" waitingCount="1" stopTime="0.00" timeLoss="37.76" rerouteNo="1" devices="tripinfo_444 routing_444" vType="DEFAULT_VEHTYPE" speedFactor="1.02" vaporized=""/>
    <tripinfo id="911" depart="429.00" departLane="-504569022_2" departPos="5.10" departSpeed="8.22" departDelay="0.16" arrival="668.00" arrivalLane="-30240188_0" arrivalPos="24.72" arrivalSpeed="13.30" duration="239.00" routeLength="2098.17" waitingTime="15.00" waitingCount="4" stopTime="0.00" timeLoss="49.40" rerouteNo="1" devices="tripinfo_911 routing_911" vType="DEFAULT_VEHTYPE" speedFactor="0.99" vaporized=""/>
    <tripinfo id="4464" depart="422.00" departLane="-E69_2" departPos="5.10" departSpeed="8.46" departDelay="0.06" arrival="678.00" arrivalLane="541602725_0" arrivalPos="69.26" arrivalSpeed="21.98" duration="256.00" routeLength="3162.95" waitingTime="42.00" waitingCount="3" stopTime="0.00" timeLoss="72.53" rerouteNo="1" devices="tripinfo_4464 routing_4464" vType="DEFAULT_VEHTYPE" speedFactor="1.02" vaporized=""/>
    <tripinfo id="4169" depart="436.00" departLane="E69_2" departPos="5.10" departSpeed="7.35" departDelay="0.54" arrival="707.00" arrivalLane="289441726_0" arrivalPos="198.23" arrivalSpeed="23.38" duration="271.00" routeLength="5178.80" waitingTime="0.00" waitingCount="0" stopTime="0.00" timeLoss="24.46" rerouteNo="1" devices="tripinfo_4169 routing_4169" vType="DEFAULT_VEHTYPE" speedFactor="0.88" vaporized=""/>
    <tripinfo id="4517" depart="458.00" departLane="-504569022_2" departPos="5.10" departSpeed="8.79" departDelay="0.33" arrival="715.00" arrivalLane="541602725_1" arrivalPos="69.26" arrivalSpeed="23.15" duration="257.00" routeLength="3309.48" waitingTime="40.00" waitingCount="2" stopTime="0.00" timeLoss="68.60" rerouteNo="1" devices="tripinfo_4517 routing_4517" vType="DEFAULT_VEHTYPE" speedFactor="1.06" vaporized=""/>
    <tripinfo id="4392" depart="513.00" departLane="E74_2" departPos="5.10" departSpeed="8.06" departDelay="0.79" arrival="716.00" arrivalLane="541602725_0" arrivalPos="69.26" arrivalSpeed="21.21" duration="203.00" routeLength="2856.89" waitingTime="32.00" waitingCount="1" stopTime="0.00" timeLoss="48.14" rerouteNo="1" devices="tripinfo_4392 routing_4392" vType="DEFAULT_VEHTYPE" speedFactor="0.97" vaporized=""/>
    <tripinfo id="5161" depart="527.00" departLane="E74_2" departPos="5.10" departSpeed="8.34" departDelay="0.91" arrival="718.00" arrivalLane="541602725_0" arrivalPos="69.26" arrivalSpeed="22.15" duration="191.00" routeLength="2856.89" waitingTime="23.00" waitingCount="2" stopTime="0.00" timeLoss="41.83" rerouteNo="1" devices="tripinfo_5161 routing_5161" vType="DEFAULT_VEHTYPE" speedFactor="1.00" vaporized=""/>
    <tripinfo id="854" depart="339.00" departLane="E49_2" departPos="5.10" departSpeed="7.12" departDelay="0.55" arrival="727.00" arrivalLane="-30240188_0" arrivalPos="24.72" arrivalSpeed="11.67" duration="388.00" routeLength="3547.03" waitingTime="111.00" waitingCount="4" stopTime="0.00" timeLoss="165.54" rerouteNo="1" devices="tripinfo_854 routing_854" vType="DEFAULT_VEHTYPE" speedFactor="0.85" vaporized=""/>
    <tripinfo id="322" depart="522.00" departLane="E44_2" departPos="5.10" departSpeed="8.13" departDelay="0.30" arrival="737.00" arrivalLane="504569020#1_0" arrivalPos="98.87" arrivalSpeed="7.84" duration="215.00" routeLength="1836.85" waitingTime="24.00" waitingCount="1" stopTime="0.00" timeLoss="51.80" rerouteNo="1" devices="tripinfo_322 routing_322" vType="DEFAULT_VEHTYPE" speedFactor="0.98" vaporized=""/>
    <tripinfo id="3383" depart="72.00" departLane="E65_2" departPos="5.10" departSpeed="8.71" departDelay="0.25" arrival="754.00" arrivalLane="289444419_0" arrivalPos="726.79" arrivalSpeed="16.39" duration="682.00" routeLength="12252.69" waitingTime="56.00" waitingCount="3" stopTime="0.00" timeLoss="129.76" rerouteNo="1" devices="tripinfo_3383 routing_3383" vType="DEFAULT_VEHTYPE" speedFactor="1.05" vaporized=""/>
    <tripinfo id="190" depart="430.00" departLane="E48_2" departPos="5.10" departSpeed="7.81" departDelay="0.33" arrival="755.00" arrivalLane="-772719711#0_2" arrivalPos="172.49" arrivalSpeed="6.70" duration="325.00" routeLength="1885.73" waitingTime="52.00" waitingCount="2" stopTime="0.00" timeLoss="81.89" rerouteNo="1" devices="tripinfo_190 routing_190" vType="DEFAULT_VEHTYPE" speedFactor="0.94" vaporized=""/>
    <tripinfo id="3477" depart="134.00" departLane="-504569022_2" departPos="5.10" departSpeed="8.26" departDelay="0.17" arrival="757.00" arrivalLane="289444419_0" arrivalPos="726.79" arrivalSpeed="16.50" duration="623.00" routeLength="9470.20" waitingTime="43.00" waitingCount="2" stopTime="0.00" timeLoss="92.61" rerouteNo="1" devices="tripinfo_3477 routing_3477" vType="DEFAULT_VEHTYPE" speedFactor="0.99" vaporized=""/>
    <tripinfo id="6703" depart="236.00" departLane="2597456_0" departPos="5.10" departSpeed="19.67" departDelay="0.07" arrival="770.00" arrivalLane="E74_2" arrivalPos="213.95" arrivalSpeed="9.22" duration="534.00" routeLength="11128.44" waitingTime="38.00" waitingCount="1" stopTime="0.00" timeLoss="81.28" rerouteNo="1" devices="tripinfo_6703 routing_6703" vType="DEFAULT_VEHTYPE" speedFactor="1.18" vaporized=""/>
    <tripinfo id="4304" depart="452.00" departLane="E71_2" departPos="5.10" departSpeed="7.83" departDelay="0.98" arrival="771.00" arrivalLane="541602725_0" arrivalPos="69.26" arrivalSpeed="20.44" duration="319.00" routeLength="4668.22" waitingTime="79.00" waitingCount="3" stopTime="0.00" timeLoss="125.93" rerouteNo="1" devices="tripinfo_4304 routing_4304" vType="DEFAULT_VEHTYPE" speedFactor="0.94" vaporized=""/>
    <tripinfo id="5826" depart="143.00" departLane="-384524948#0_0" departPos="5.10" departSpeed="9.65" departDelay="0.80" arrival="784.00" arrivalLane="-E69_2" arrivalPos="192.46" arrivalSpeed="9.26" duration="641.00" routeLength="9896.40" waitingTime="97.00" waitingCount="4" stopTime="0.00" timeLoss="165.38" rerouteNo="1" devices="tripinfo_5826 routing_5826" vType="DEFAULT_VEHTYPE" speedFactor="1.16" vaporized=""/>
    <tripinfo id="3578" depart="281.00" departLane="-E74_2" departPos="5.10" departSpeed="9.10" departDelay="0.60" arrival="795.00" arrivalLane="289444419_0" arrivalPos="726.79" arrivalSpeed="16.94" duration="514.00" routeLength="11332.82" waitingTime="0.00" waitingCount="0" stopTime="0.00" timeLoss="35.07" rerouteNo="1" devices="tripinfo_3578 routing_3578" vType="DEFAULT_VEHTYPE" speedFactor="1.09" vaporized=""/>
    <tripinfo id="4317" depart="371.00" departLane="E49_2" departPos="5.10" departSpeed="8.30" departDelay="0.40" arrival="795.00" arrivalLane="541602725_0" arrivalPos="69.26" arrivalSpeed="21.73" duration="424.00" routeLength="5405.03" waitingTime="100.00" waitingCount="5" stopTime="0.00" timeLoss="181.21" rerouteNo="1" devices="tripinfo_4317 routing_4317" vType="DEFAULT_VEHTYPE" speedFactor="1.00" vaporized=""/>
    <tripinfo id="2328" depart="75.00" departLane="E44_2" departPos="5.10" departSpeed="7.81" departDelay="0.46" arrival="796.00" arrivalLane="479885266_4" arrivalPos="34.81" arrivalSpeed="11.71" duration="721.00" routeLength="11950.11" waitingTime="57.00" waitingCount="3" stopTime="0.00" timeLoss="120.56" rerouteNo="1" devices="tripinfo_2328 routing_2328" vType="DEFAULT_VEHTYPE" speedFactor="0.94" vaporized=""/>
    <tripinfo id="7514" depart="129.00" departLane="317240329_0" departPos="5.10" departSpeed="6.24" departDelay="0.76" arrival="799.00" arrivalLane="E69_2" arrivalPos="192.46" arrivalSpeed="8.13" duration="670.00" routeLength="5510.17" waitingTime="162.00" waitingCount="9" stopTime="0.00" timeLoss="259.58" rerouteNo="1" devices="tripinfo_7514 routing_7514" vType="DEFAULT_VEHTYPE" speedFactor="1.12" vaporized=""/>
    <tripinfo id="3992" depart="501.00" departLane="-E51_2" departPos="5.10" departSpeed="8.62" departDelay="0.83" arrival="801.00" arrivalLane="289441726_0" arrivalPos="198.23" arrivalSpeed="28.08" duration="300.00" routeLength="5580.06" waitingTime="8.00" waitingCount="1" stopTime="0.00" timeLoss="43.48" rerouteNo="1" devices="tripinfo_3992 routing_3992" vType="DEFAULT_VEHTYPE" speedFactor="1.03" vaporized=""/>
    <personinfo id="cust6" depart="131.00" type="DEFAULT_PEDTYPE">
        <ride waitingTime="413.00" vehicle="taxiV4" depart="544.00" arrival="805.00" arrivalPos="262.71" duration="261.00" routeLength="1663.18" timeLoss="69.05"/>
    </personinfo>
    <tripinfo id="249" depart="491.00" departLane="E44_2" departPos="5.10" departSpeed="8.18" departDelay="0.56" arrival="808.00" arrivalLane="-772719711#0_2" arrivalPos="172.49" arrivalSpeed="7.73" duration="317.00" routeLength="2330.39" waitingTime="24.00" waitingCount="1" stopTime="0.00" timeLoss="59.13" rerouteNo="1" devices="tripinfo_249 routing_249" vType="DEFAULT_VEHTYPE" speedFactor="0.98" vaporized=""/>
    <tripinfo id="3104" depart="286.00" departLane="-E70_2" departPos="5.10" departSpeed="8.69" departDelay="0.57" arrival="809.00" arrivalLane="289444419_0" arrivalPos="726.79" arrivalSpeed="16.63" duration="523.00" routeLength="11158.71" waitingTime="9.00" waitingCount="1" stopTime="0.00" timeLoss="41.42" rerouteNo="1" devices="tripinfo_3104 routing_3104" vType="DEFAULT_VEHTYPE" speedFactor="1.04" vaporized=""/>
    <tripinfo id="4820" depart="451.00" departLane="-E44_2" departPos="5.10" departSpeed="8.52" departDelay="0.61" arrival="819.00" arrivalLane="541602725_0" arrivalPos="69.26" arrivalSpeed="21.87" duration="368.00" routeLength="5010.08" waitingTime="70.00" waitingCount="3" stopTime="0.00" timeLoss="123.02" rerouteNo="1" devices="tripinfo_4820 routing_4820" vType="DEFAULT_VEHTYPE" speedFactor="1.02" vaporized=""/>
    <personinfo id="cust14" depart="521.00" type="DEFAULT_PEDTYPE">
        <ride waitingTime="87.00" vehicle="taxiV7" depart="608.00" arrival="821.00" arrivalPos="72.42" duration="213.00" routeLength="1558.98" timeLoss="83.09"/>
    </personinfo>
    <tripinfo id="4609" depart="475.00" departLane="E43_2" departPos="5.10" departSpeed="8.20" departDelay="0.89" arrival="825.00" arrivalLane="541602725_0" arrivalPos="69.26" arrivalSpeed="20.68" duration="350.00" routeLength="5127.90" waitingTime="32.00" waitingCount="2" stopTime="0.00" timeLoss="79.73" rerouteNo="1" devices="tripinfo_4609 routing_4609" vType="DEFAULT_VEHTYPE" speedFactor="0.98" vaporized=""/>
    <tripinfo id="4358" depart="446.00" departLane="-E46_2" departPos="5.10" departSpeed="7.62" departDelay="0.71" arrival="832.00" arrivalLane="541602725_0" arrivalPos="69.26" arrivalSpeed="19.77" duration="386.00" routeLength="5291.65" waitingTime="20.00" waitingCount="3" stopTime="0.00" timeLoss="74.13" rerouteNo="1" devices="tripinfo_4358 routing_4358" vType="DEFAULT_VEHTYPE" speedFactor="0.91" vaporized=""/>
    <tripinfo id="6768" depart="485.00" departLane="327070358_0" departPos="5.10" departSpeed="28.68" departDelay="0.91" arrival="839.00" arrivalLane="-E43_2" arrivalPos="21.17" arrivalSpeed="8.44" duration="354.00" routeLength="5678.61" waitingTime="74.00" waitingCount="2" stopTime="0.00" timeLoss="106.15" rerouteNo="1" devices="tripinfo_6768 routing_6768" vType="DEFAULT_VEHTYPE" speedFactor="1.03" vaporized=""/>
    <tripinfo id="4110" depart="510.00" departLane="E49_2" departPos="5.10" departSpeed="8.47" departDelay="0.46" arrival="846.00" arrivalLane="289441726_0" arrivalPos="198.23" arrivalSpeed="27.35" duration="336.00" routeLength="5922.23" waitingTime="21.00" waitingCount="1" stopTime="0.00" timeLoss="61.75" rerouteNo="1" devices="tripinfo_4110 routing_4110" vType="DEFAULT_VEHTYPE" speedFactor="1.02" vaporized=""/>
    <tripinfo id="537" depart="542.00" departLane="E51_2" departPos="5.10" departSpeed="8.39" departDelay="0.34" arrival="846.00" arrivalLane="-721302669#2_2" arrivalPos="262.71" arrivalSpeed="4.72" duration="304.00" routeLength="1899.98" waitingTime="90.00" waitingCount="3" stopTime="0.00" timeLoss="124.96" rerouteNo="1" devices="tripinfo_537 routing_537" vType="DEFAULT_VEHTYPE" speedFactor="1.01" vaporized=""/>
    <tripinfo id="5739" depart="614.00" departLane="-30240188_0" departPos="5.10" departSpeed="14.79" departDelay="0.27" arrival="846.00" arrivalLane="E70_2" arrivalPos="149.08" arrivalSpeed="8.60" duration="232.00" routeLength="2441.54" waitingTime="63.00" waitingCount="3" stopTime="0.00" timeLoss="103.64" rerouteNo="1" devices="tripinfo_5739 routing_5739" vType="DEFAULT_VEHTYPE" speedFactor="1.06" vaporized=""/>
    <tripinfo id="6522" depart="139.00" departLane="2597456_0" departPos="5.10" departSpeed="15.69" departDelay="0.30" arrival="847.00" arrivalLane="E44_2" arrivalPos="112.64" arrivalSpeed="6.90" duration="708.00" routeLength="11543.51" waitingTime="41.00" waitingCount="3" stopTime="0.00" timeLoss="88.13" rerouteNo="1" devices="tripinfo_6522 routing_6522" vType="DEFAULT_VEHTYPE" speedFactor="0.94" vaporized=""/>
    <tripinfo id="7293" depart="653.00" departLane="55717665_0" departPos="5.10" departSpeed="39.61" departDelay="0.87" arrival="849.00" arrivalLane="E44_2" arrivalPos="112.64" arrivalSpeed="7.23" duration="196.00" routeLength="3005.71" waitingTime="0.00" waitingCount="0" stopTime="0.00" timeLoss="24.91" rerouteNo="1" devices="tripinfo_7293 routing_7293" vType="DEFAULT_VEHTYPE" speedFactor="1.00" vaporized=""/>
    <tripinfo id="7189" depart="598.00" departLane="55717665_0" departPos="5.10" departSpeed="42.31" departDelay="0.91" arrival="850.00" arrivalLane="-E49_2" arrivalPos="121.44" arrivalSpeed="8.50" duration="252.00" routeLength="3415.62" waitingTime="59.00" waitingCount="3" stopTime="0.00" timeLoss="99.00" rerouteNo="1" devices="tripinfo_7189 routing_7189" vType="DEFAULT_VEHTYPE" speedFactor="1.07" vaporized=""/>
    <tripinfo id="211" depart="694.00" departLane="-E72_2" departPos="5.10" departSpeed="8.84" departDelay="0.72" arrival="862.00" arrivalLane="504569020#1_0" arrivalPos="98.87" arrivalSpeed="7.98" duration="168.00" routeLength="914.10" waitingTime="43.00" waitingCount="3" stopTime="0.00" timeLoss="64.44" rerouteNo="1" devices="tripinfo_211 routing_211" vType="DEFAULT_VEHTYPE" speedFactor="1.06" vaporized=""/>
    <tripinfo id="4441" depart="537.00" departLane="-E65_2" departPos="5.10" departSpeed="8.69" departDelay="0.80" arrival="874.00" arrivalLane="541602725_0" arrivalPos="69.26" arrivalSpeed="22.48" duration="337.00" routeLength="5294.34" waitingTime="8.00" waitingCount="2" stopTime="0.00" timeLoss="62.91" rerouteNo="1" devices="tripinfo_4441 routing_4441" vType="DEFAULT_VEHTYPE" speedFactor="1.04" vaporized=""/>
    <tripinfo id="711" depart="574.00" departLane="E48_2" departPos="5.10" departSpeed="7.55" departDelay="0.05" arrival="882.00" arrivalLane="-30240188_0" arrivalPos="24.72" arrivalSpeed="12.46" duration="308.00" routeLength="3432.91" waitingTime="55.00" waitingCount="3" stopTime="0.00" timeLoss="102.94" rerouteNo="1" devices="tripinfo_711 routing_711" vType="DEFAULT_VEHTYPE" speedFactor="0.91" vaporized=""/>
    <tripinfo id="605" depart="675.00" departLane="E51_2" departPos="5.10" departSpeed="9.19" departDelay="0.36" arrival="890.00" arrivalLane="-721302669#2_2" arrivalPos="262.71" arrivalSpeed="8.48" duration="215.00" routeLength="1899.98" waitingTime="21.00" waitingCount="3" stopTime="0.00" timeLoss="52.24" rerouteNo="1" devices="tripinfo_605 routing_605" vType="DEFAULT_VEHTYPE" speedFactor="1.10" vaporized=""/>
    <tripinfo id="794" depart="685.00" departLane="E74_2" departPos="5.10" departSpeed="8.59" departDelay="0.63" arrival="893.00" arrivalLane="-30240188_0" arrivalPos="24.72" arrivalSpeed="14.22" duration="208.00" routeLength="1645.58" waitingTime="38.00" waitingCount="5" stopTime="0.00" timeLoss="73.89" rerouteNo="1" devices="tripinfo_794 routing_794" vType="DEFAULT_VEHTYPE" speedFactor="1.03" vaporized=""/>
    <tripinfo id="989" depart="674.00" departLane="-E71_2" departPos="5.10" departSpeed="7.84" departDelay="0.31" arrival="919.00" arrivalLane="-30240188_0" arrivalPos="24.72" arrivalSpeed="12.22" duration="245.00" routeLength="2697.91" waitingTime="58.00" waitingCount="2" stopTime="0.00" timeLoss="92.12" rerouteNo="1" devices="tripinfo_989 routing_989" vType="DEFAULT_VEHTYPE" speedFactor="0.94" vaporized=""/>
    <tripinfo id="5746" depart="646.00" departLane="-30240188_0" departPos="5.10" departSpeed="15.23" departDelay="0.53" arrival="920.00" arrivalLane="E44_2" arrivalPos="112.64" arrivalSpeed="8.82" duration="274.00" routeLength="3026.17" waitingTime="42.00" waitingCount="3" stopTime="0.00" timeLoss="85.01" rerouteNo="1" devices="tripinfo_5746 routing_5746" vType="DEFAULT_VEHTYPE" speedFactor="1.10" vaporized=""/>
    <tripinfo id="3799" depart="200.00" departLane="-E51_2" departPos="5.10" departSpeed="7.64" departDelay="0.70" arrival="926.00" arrivalLane="289444419_0" arrivalPos="726.79" arrivalSpeed="14.47" duration="726.00" routeLength="12192.09" waitingTime="43.00" waitingCount="2" stopTime="0.00" timeLoss="102.96" rerouteNo="1" devices="tripinfo_3799 routing_3799" vType="DEFAULT_VEHTYPE" speedFactor="0.92" vaporized=""/>
    <tripinfo id="7032" depart="722.00" departLane="55717665_0" departPos="5.10" departSpeed="44.11" departDelay="0.69" arrival="926.00" arrivalLane="-E49_2" arrivalPos="121.44" arrivalSpeed="8.89" duration="204.00" routeLength="3415.62" waitingTime="16.00" waitingCount="2" stopTime="0.00" timeLoss="57.36" rerouteNo="1" devices="tripinfo_7032 routing_7032" vType="DEFAULT_VEHTYPE" speedFactor="1.12" vaporized=""/>
    <tripinfo id="3501" depart="136.00" departLane="E48_2" departPos="5.10" departSpeed="7.32" departDelay="0.23" arrival="946.00" arrivalLane="289444419_0" arrivalPos="726.79" arrivalSpeed="13.44" duration="810.00" routeLength="12015.74" waitingTime="115.00" waitingCount="3" stopTime="0.00" timeLoss="174.28" rerouteNo="1" devices="tripinfo_3501 routing_3501" vType="DEFAULT_VEHTYPE" speedFactor="0.88" vaporized=""/>